<?xml version="1.0"?>
<VTKFile type="UnstructuredGrid" version="0.1" byte_order="LittleEndian">
<UnstructuredGrid>
<Piece NumberOfPoints="21736" NumberOfCells="5434">
<Points>
<DataArray type="Float64" NumberOfComponents="3" format="ascii">
0 0 0 0.06323106138816019 0.062142082272951933 0.059406074834875783 0 0.12500000000052011 0 0.097115124458785826 0.097115124458952332 0 0 0 0 0.06323106138816019 0.062142082272951933 0.059406074834875783 0.097115124458785826 0.097115124458952332 0 0.12499999999977381 0 0 0 0 0 0.06323106138816019 0.062142082272951933 0.059406074834875783 0 0 0.12499999999977381 0.097115124458877891 0 0.097115124458877891 0 0 0 0.06323106138816019 0.062142082272951933 0.059406074834875783 0.097115124458877891 0 0.097115124458877891 0.12499999999977381 0 0 0 0 0 0.06323106138816019 0.062142082272951933 0.059406074834875783 0 0.097115124458952332 0.097115124458785826 0 0.12500000000052011 0 0 0 0 0.06323106138816019 0.062142082272951933 0.059406074834875783 0 0 0.12499999999977381 0 0.097115124458952332 0.097115124458785826 0 0 0.12499999999977381 0.072551601355543657 0 0.18244710269698541 0.061562519669449138 0.059434890704512577 0.14640236215318811 0.097115124458877891 0 0.097115124458877891 0 0 0.12499999999977381 0.072551601355543657 0 0.18244710269698541 0.061562519669449138 0.059434890704512577 0.14640236215318811 0 0 0.24999999999941239 0 0 0.12499999999977381 0 0.073316820370859764 0.18109440156403181 0.061562519669449138 0.059434890704512577 0.14640236215318811 0 0 0.24999999999941239 0.072551601355543657 0 0.18244710269698541 0.061562519669449138 0.059434890704512577 0.14640236215318811 0.08935723244776661 0.086883235764133676 0.21915734371072179 0 0 0.24999999999941239 0 0.073316820370859764 0.18109440156403181 0.061562519669449138 0.059434890704512577 0.14640236215318811 0.08935723244776661 0.086883235764133676 0.21915734371072179 0 0 0.24999999999941239 0.06323106138816019 0.062142082272951933 0.059406074834875783 0 0 0.12499999999977381 0.061562519669449138 0.059434890704512577 0.14640236215318811 0.097115124458877891 0 0.097115124458877891 0.06323106138816019 0.062142082272951933 0.059406074834875783 0.061562519669449138 0.059434890704512577 0.14640236215318811 0 0.097115124458952332 0.097115124458785826 0.1289262165046228 0.1094244395929215 0.109406571350707 0.06323106138816019 0.062142082272951933 0.059406074834875783 0 0 0.12499999999977381 0.061562519669449138 0.059434890704512577 0.14640236215318811 0 0.097115124458952332 0.097115124458785826 0 0 0.12499999999977381 0 0.073316820370859764 0.18109440156403181 0.061562519669449138 0.059434890704512577 0.14640236215318811 0 0.097115124458952332 0.097115124458785826 0 0.073316820370859764 0.18109440156403181 0.061562519669449138 0.059434890704512577 0.14640236215318811 0 0.097115124458952332 0.097115124458785826 0 0.17009619771987891 0.16806798983665569 0 0.17009619771987891 0.16806798983665569 0.07291569808422331 0.1826984339026739 0.06727569697794418 0.1289262165046228 0.1094244395929215 0.109406571350707 0.1307313911228048 0.2541486156333484 0.12772207903554619 0.061562519669449138 0.059434890704512577 0.14640236215318811 0 0.097115124458952332 0.097115124458785826 0 0.17009619771987891 0.16806798983665569 0.1289262165046228 0.1094244395929215 0.109406571350707 0 0.097115124458952332 0.097115124458785826 0 0.17009619771987891 0.16806798983665569 0.07291569808422331 0.1826984339026739 0.06727569697794418 0.1289262165046228 0.1094244395929215 0.109406571350707 0 0.17009619771987891 0.16806798983665569 0.08935723244776661 0.086883235764133676 0.21915734371072179 0.098222284833748397 0.2197439980240854 0.23619361920574031 0 0.099372779675467607 0.26528889352553142 0 0.17009619771987891 0.16806798983665569 0.1289262165046228 0.1094244395929215 0.109406571350707 0.08935723244776661 0.086883235764133676 0.21915734371072179 0.098222284833748397 0.2197439980240854 0.23619361920574031 0 0.073316820370859764 0.18109440156403181 0 0.17009619771987891 0.16806798983665569 0.08935723244776661 0.086883235764133676 0.21915734371072179 0 0.099372779675467607 0.26528889352553142 0 0.073316820370859764 0.18109440156403181 0.061562519669449138 0.059434890704512577 0.14640236215318811 0 0.17009619771987891 0.16806798983665569 0.08935723244776661 0.086883235764133676 0.21915734371072179 0.061562519669449138 0.059434890704512577 0.14640236215318811 0 0.17009619771987891 0.16806798983665569 0.1289262165046228 0.1094244395929215 0.109406571350707 0.08935723244776661 0.086883235764133676 0.21915734371072179 0 0.17009619771987891 0.16806798983665569 0.098222284833748397 0.2197439980240854 0.23619361920574031 0 0.2134112930234815 0.28239564278595841 0 0.28674406688656878 0.2119407166408592 0 0.17009619771987891 0.16806798983665569 0.07291569808422331 0.1826984339026739 0.06727569697794418 0.1307313911228048 0.2541486156333484 0.12772207903554619 0 0.26324808216617729 0.1061976352567853 0 0.097115124458952332 0.097115124458785826 0 0.17009619771987891 0.16806798983665569 0 0.1810918808693138 0.074276149910445372 0.07291569808422331 0.1826984339026739 0.06727569697794418 0 0.17009619771987891 0.16806798983665569 0 0.1810918808693138 0.074276149910445372 0.07291569808422331 0.1826984339026739 0.06727569697794418 0 0.26324808216617729 0.1061976352567853 0 0.1810918808693138 0.074276149910445372 0.07291569808422331 0.1826984339026739 0.06727569697794418 0 0.25000000000104039 0 0 0.26324808216617729 0.1061976352567853 0 0.1810918808693138 0.074276149910445372 0 0.12500000000052011 0 0.07291569808422331 0.1826984339026739 0.06727569697794418 0 0.25000000000104039 0 0 0.097115124458952332 0.097115124458785826 0 0.1810918808693138 0.074276149910445372 0 0.12500000000052011 0 0.07291569808422331 0.1826984339026739 0.06727569697794418 0.06323106138816019 0.062142082272951933 0.059406074834875783 0 0.12500000000052011 0 0.07291569808422331 0.1826984339026739 0.06727569697794418 0.097115124458785826 0.097115124458952332 0 0.06323106138816019 0.062142082272951933 0.059406074834875783 0 0.097115124458952332 0.097115124458785826 0 0.12500000000052011 0 0.07291569808422331 0.1826984339026739 0.06727569697794418 0.06323106138816019 0.062142082272951933 0.059406074834875783 0 0.097115124458952332 0.097115124458785826 0.07291569808422331 0.1826984339026739 0.06727569697794418 0.1289262165046228 0.1094244395929215 0.109406571350707 0 0.12500000000052011 0 0.074276107326000582 0.18109175666468211 0 0.07291569808422331 0.1826984339026739 0.06727569697794418 0.097115124458785826 0.097115124458952332 0 0.074276107326000582 0.18109175666468211 0 0.07291569808422331 0.1826984339026739 0.06727569697794418 0.10619742233455839 0.26324746114302949 0 0 0.25000000000104039 0 0 0.12500000000052011 0 0.074276107326000582 0.18109175666468211 0 0.07291569808422331 0.1826984339026739 0.06727569697794418 0 0.25000000000104039 0 0.07291569808422331 0.1826984339026739 0.06727569697794418 0.20025673477961189 0.19140754843858721 0.073010113208307331 0.1307313911228048 0.2541486156333484 0.12772207903554619 0.10619742233455839 0.26324746114302949 0 0.07291569808422331 0.1826984339026739 0.06727569697794418 0.1680679898366586 0.17009619771986781 0 0.20025673477961189 0.19140754843858721 0.073010113208307331 0.1289262165046228 0.1094244395929215 0.109406571350707 0.07291569808422331 0.1826984339026739 0.06727569697794418 0.1680679898366586 0.17009619771986781 0 0.20025673477961189 0.19140754843858721 0.073010113208307331 0.10619742233455839 0.26324746114302949 0 0.074276107326000582 0.18109175666468211 0 0.07291569808422331 0.1826984339026739 0.06727569697794418 0.097115124458785826 0.097115124458952332 0 0.1680679898366586 0.17009619771986781 0 0.074276107326000582 0.18109175666468211 0 0.07291569808422331 0.1826984339026739 0.06727569697794418 0.1680679898366586 0.17009619771986781 0 0.10619742233455839 0.26324746114302949 0 0.06323106138816019 0.062142082272951933 0.059406074834875783 0.07291569808422331 0.1826984339026739 0.06727569697794418 0.097115124458785826 0.097115124458952332 0 0.1289262165046228 0.1094244395929215 0.109406571350707 0.07291569808422331 0.1826984339026739 0.06727569697794418 0.097115124458785826 0.097115124458952332 0 0.1680679898366586 0.17009619771986781 0 0.1289262165046228 0.1094244395929215 0.109406571350707 0.097115124458785826 0.097115124458952332 0 0.1680679898366586 0.17009619771986781 0 0.1289262165046228 0.1094244395929215 0.109406571350707 0.18109440156403669 0.073316820370859112 0 0.1680679898366586 0.17009619771986781 0 0.22141769647606749 0.080862311673354156 0.083931555580687142 0.18109440156403669 0.073316820370859112 0 0.26528889352555279 0.099372779675475503 0 0.1680679898366586 0.17009619771986781 0 0.20025673477961189 0.19140754843858721 0.073010113208307331 0.1289262165046228 0.1094244395929215 0.109406571350707 0.22141769647606749 0.080862311673354156 0.083931555580687142 0.1680679898366586 0.17009619771986781 0 0.1289262165046228 0.1094244395929215 0.109406571350707 0.22141769647606749 0.080862311673354156 0.083931555580687142 0.18109440156403669 0.073316820370859112 0 0.1680679898366586 0.17009619771986781 0 0.20025673477961189 0.19140754843858721 0.073010113208307331 0.22141769647606749 0.080862311673354156 0.083931555580687142 0.26528889352555279 0.099372779675475503 0 0.1680679898366586 0.17009619771986781 0 0.20025673477961189 0.19140754843858721 0.073010113208307331 0.28238962436783799 0.21335287803006631 0 0.21199123149808141 0.28671388592782698 0 0.20670689941440221 0.17652359486693919 0.1821174131237745 0.1289262165046228 0.1094244395929215 0.109406571350707 0.098222284833748397 0.2197439980240854 0.23619361920574031 0.1307313911228048 0.2541486156333484 0.12772207903554619 0 0.17009619771987891 0.16806798983665569 0.1289262165046228 0.1094244395929215 0.109406571350707 0.098222284833748397 0.2197439980240854 0.23619361920574031 0.1307313911228048 0.2541486156333484 0.12772207903554619 0.20025673477961189 0.19140754843858721 0.07301011320
[...]
<PointData Scalars="" Vectors="displacement," Tensors="">
<DataArray type="Float64" Name="displacement" NumberOfComponents="3" format="ascii">
0.00043290876587099712 -0.0008208111868041794 6.9551426378540302e-05 0.00037409160007991805 -0.000722861202349907 6.3037742214883303e-05 0.00035461801545960193 -0.00069578725784043922 7.7672546487382593e-05 0.00034770210902907957 -0.00066276130483663618 8.243869051460807e-05 0.00043290876587099712 -0.0008208111868041794 6.9551426378540302e-05 0.00037409160007991805 -0.000722861202349907 6.3037742214883303e-05 0.00034770210902907957 -0.00066276130483663618 8.243869051460807e-05 0.0004016925780275085 -0.00074225266538671209 7.7934426090422266e-05 0.00043290876587099712 -0.0008208111868041794 6.9551426378540302e-05 0.00037409160007991805 -0.000722861202349907 6.3037742214883303e-05 0.00042451572578107601 -0.00082895006760603292 3.8255645446979479e-05 0.00040218511179553084 -0.00076615652993954704 5.1796256586598502e-05 0.00043290876587099712 -0.0008208111868041794 6.9551426378540302e-05 0.00037409160007991805 -0.000722861202349907 6.3037742214883303e-05 0.00040218511179553084 -0.00076615652993954704 5.1796256586598502e-05 0.0004016925780275085 -0.00074225266538671209 7.7934426090422266e-05 0.00043290876587099712 -0.0008208111868041794 6.9551426378540302e-05 0.00037409160007991805 -0.000722861202349907 6.3037742214883303e-05 0.000365451578710203 -0.00072995059448252499 5.1582372362672436e-05 0.00035461801545960193 -0.00069578725784043922 7.7672546487382593e-05 0.00043290876587099712 -0.0008208111868041794 6.9551426378540302e-05 0.00037409160007991805 -0.000722861202349907 6.3037742214883303e-05 0.00042451572578107601 -0.00082895006760603292 3.8255645446979479e-05 0.000365451578710203 -0.00072995059448252499 5.1582372362672436e-05 0.00042451572578107601 -0.00082895006760603292 3.8255645446979479e-05 0.00040259680617613693 -0.00078715354731815083 2.8726074897410094e-05 0.00037037685135786973 -0.00073227338152109225 4.0963513944208528e-05 0.00040218511179553084 -0.00076615652993954704 5.1796256586598502e-05 0.00042451572578107601 -0.00082895006760603292 3.8255645446979479e-05 0.00040259680617613693 -0.00078715354731815083 2.8726074897410094e-05 0.00037037685135786973 -0.00073227338152109225 4.0963513944208528e-05 0.00041614995925354616 -0.00083708801449025767 6.7938759069053968e-06 0.00042451572578107601 -0.00082895006760603292 3.8255645446979479e-05 0.00037475521586611643 -0.00075920223325026215 2.8964857783419665e-05 0.00037037685135786973 -0.00073227338152109225 4.0963513944208528e-05 0.00041614995925354616 -0.00083708801449025767 6.7938759069053968e-06 0.00040259680617613693 -0.00078715354731815083 2.8726074897410094e-05 0.00037037685135786973 -0.00073227338152109225 4.0963513944208528e-05 0.000341333404281859 -0.00069213576620187557 2.6410463131805363e-05 0.00041614995925354616 -0.00083708801449025767 6.7938759069053968e-06 0.00037475521586611643 -0.00075920223325026215 2.8964857783419665e-05 0.00037037685135786973 -0.00073227338152109225 4.0963513944208528e-05 0.000341333404281859 -0.00069213576620187557 2.6410463131805363e-05 0.00041614995925354616 -0.00083708801449025767 6.7938759069053968e-06 0.00037409160007991805 -0.000722861202349907 6.3037742214883303e-05 0.00042451572578107601 -0.00082895006760603292 3.8255645446979479e-05 0.00037037685135786973 -0.00073227338152109225 4.0963513944208528e-05 0.00040218511179553084 -0.00076615652993954704 5.1796256586598502e-05 0.00037409160007991805 -0.000722861202349907 6.3037742214883303e-05 0.00037037685135786973 -0.00073227338152109225 4.0963513944208528e-05 0.000365451578710203 -0.00072995059448252499 5.1582372362672436e-05 0.00032459362842015801 -0.0006376069019085256 5.8194862539965245e-05 0.00037409160007991805 -0.000722861202349907 6.3037742214883303e-05 0.00042451572578107601 -0.00082895006760603292 3.8255645446979479e-05 0.00037037685135786973 -0.00073227338152109225 4.0963513944208528e-05 0.000365451578710203 -0.00072995059448252499 5.1582372362672436e-05 0.00042451572578107601 -0.00082895006760603292 3.8255645446979479e-05 0.00037475521586611643 -0.00075920223325026215 2.8964857783419665e-05 0.00037037685135786973 -0.00073227338152109225 4.0963513944208528e-05 0.000365451578710203 -0.00072995059448252499 5.1582372362672436e-05 0.00037475521586611643 -0.00075920223325026215 2.8964857783419665e-05 0.00037037685135786973 -0.00073227338152109225 4.0963513944208528e-05 0.000365451578710203 -0.00072995059448252499 5.1582372362672436e-05 0.00031505243865990052 -0.00066145859184454914 3.8572621547078206e-05 0.00031505243865990052 -0.00066145859184454914 3.8572621547078206e-05 0.00029585229394717475 -0.00059697328396132515 6.9661879249262776e-05 0.00032459362842015801 -0.0006376069019085256 5.8194862539965245e-05 0.00023300667349580046 -0.00049345614551908005 6.3420014288420205e-05 0.00037037685135786973 -0.00073227338152109225 4.0963513944208528e-05 0.000365451578710203 -0.00072995059448252499 5.1582372362672436e-05 0.00031505243865990052 -0.00066145859184454914 3.8572621547078206e-05 0.00032459362842015801 -0.0006376069019085256 5.8194862539965245e-05 0.000365451578710203 -0.00072995059448252499 5.1582372362672436e-05 0.00031505243865990052 -0.00066145859184454914 3.8572621547078206e-05 0.00029585229394717475 -0.00059697328396132515 6.9661879249262776e-05 0.00032459362842015801 -0.0006376069019085256 5.8194862539965245e-05 0.00031505243865990052 -0.00066145859184454914 3.8572621547078206e-05 0.000341333404281859 -0.00069213576620187557 2.6410463131805363e-05 0.0002549256181199216 -0.00055492083990219801 3.1708623766630702e-05 0.00035273170614859436 -0.00073859394172651627 9.4701804298949043e-06 0.00031505243865990052 -0.00066145859184454914 3.8572621547078206e-05 0.00032459362842015801 -0.0006376069019085256 5.8194862539965245e-05 0.000341333404281859 -0.00069213576620187557 2.6410463131805363e-05 0.0002549256181199216 -0.00055492083990219801 3.1708623766630702e-05 0.00037475521586611643 -0.00075920223325026215 2.8964857783419665e-05 0.00031505243865990052 -0.00066145859184454914 3.8572621547078206e-05 0.000341333404281859 -0.00069213576620187557 2.6410463131805363e-05 0.00035273170614859436 -0.00073859394172651627 9.4701804298949043e-06 0.00037475521586611643 -0.00075920223325026215 2.8964857783419665e-05 0.00037037685135786973 -0.00073227338152109225 4.0963513944208528e-05 0.00031505243865990052 -0.00066145859184454914 3.8572621547078206e-05 0.000341333404281859 -0.00069213576620187557 2.6410463131805363e-05 0.00037037685135786973 -0.00073227338152109225 4.0963513944208528e-05 0.00031505243865990052 -0.00066145859184454914 3.8572621547078206e-05 0.00032459362842015801 -0.0006376069019085256 5.8194862539965245e-05 0.000341333404281859 -0.00069213576620187557 2.6410463131805363e-05 0.00031505243865990052 -0.00066145859184454914 3.8572621547078206e-05 0.0002549256181199216 -0.00055492083990219801 3.1708623766630702e-05 0.00028025968325293691 -0.00062553903412978487 1.2705428227008266e-05 0.00023968574185433754 -0.00054765370790807065 3.4973245192000423e-05 0.00031505243865990052 -0.00066145859184454914 3.8572621547078206e-05 0.00029585229394717475 -0.00059697328396132515 6.9661879249262776e-05 0.00023300667349580046 -0.00049345614551908005 6.3420014288420205e-05 0.0002616331425184854 -0.00056441212171307368 5.9870815124731643e-05 0.000365451578710203 -0.00072995059448252499 5.1582372362672436e-05 0.00031505243865990052 -0.00066145859184454914 3.8572621547078206e-05 0.00031465251481024192 -0.00064441644731518292 6.2689648030466957e-05 0.00029585229394717475 -0.00059697328396132515 6.9661879249262776e-05 0.00031505243865990052 -0.00066145859184454914 3.8572621547078206e-05 0.00031465251481024192 -0.00064441644731518292 6.2689648030466957e-05 0.00029585229394717475 -0.00059697328396132515 6.9661879249262776e-05 0.0002616331425184854 -0.00056441212171307368 5.9870815124731643e-05 0.00031465251481024192 -0.00064441644731518292 6.2689648030466957e-05 0.00029585229394717475 -0.00059697328396132515 6.9661879249262776e-05 0.00027743850030867532 -0.00057113084817023748 8.532085983932309e-05 0.0002616331425184854 -0.00056441212171307368 5.9870815124731643e-05 0.00031465251481024192 -0.00064441644731518292 6.2689648030466957e-05 0.00035461801545960193 -0.00069578725784043922 7.7672546487382593e-05 0.00029585229394717475 -0.00059697328396132515 6.9661879249262776e-05 0.00027743850030867532 -0.00057113084817023748 8.532085983932309e-05 0.000365451578710203 -0.00072995059448252499 5.1582372362672436e-05 0.00031465251481024192 -0.00064441644731518292 6.2689648030466957e-05 0.00035461801545960193 -0.00069578725784043922 7.7672546487382593e-05 0.00029585229394717475 -0.00059697328396132515 6.9661879249262776e-05 0.00037409160007991805 -0.000722861202349907 6.3037742214883303e-05 0.00035461801545960193 -0.00069578725784043922 7.7672546487382593e-05 0.00029585229394717475 -0.00059697328396132515 6.9661879249262776e-05 0.00034770210902907957 -0.00066276130483663618 8.243869051460807e-05 0.00037409160007991805 -0.000722861202349907 6.3037742214883303e-05 0.000365451578710203 -0.00072995059448252499 5.1582372362672436e-05 0.00035461801545960193 -0.00069578725784043922 7.7672546487382593e-05 0.00029585229394717475 -0.00059697328396132515 6.9661879249262776e-05 0.00037409160007991805 -0.000722861202349907 6.3037742214883303e-05 0.000365451578710203 -0.00072995059448252499 5.1582372362672436e-05 0.00029585229394717475 -0.00059697328396132515 6.9661879249262776e-05 0.00032459362842015801 -0.0006376069019085256 5.8194862539965245e-05 0.00035461801545960193 -0.00069578725784043922 7.7672546487382593e-05 0.00030120489203720838 -0.00059344518997783583 8.6320492598299242e-05 0.00029585229394717475 -0.00059697328396132515 6.9661879249262776e-05 0.00034770210902907957 -0.00066276130483663618 8.243869051460807e-05 0.00030120489203720838 -0.00059344518997783583 8.6320492598299242e-05 0.00029585229394717475 -0.00059697328396132515 6.9661879249262776e-05 0.000242748970617043 -0.00049179645975104232 9.3754426021946179e-05 0.00027743850030867532 -0.00057113084817023748 8.532085983932309e-05 0.00035461801545960193 -0.00069578725784043922 7.7672546487382593e-05 0.00030120489203720838 -0.00059344518997783583 8.6320492598299242e-05 0.00029585229394717475 -0.00059697328396132515 6.9661879249262776e-05 0.00027743850030867532 -0.00057113084817023748 8.532085983932309e-05 0.00029585229394717475 -0.00059697328396132515 6.9661879249262776e-05 0.00025795664304915076 -0.0005082884359499507 7.7780276585797021e-05 0.00023300667349580046 -0.00049345614551908005 6.3420014288420205e-05 0.000242748970617043 -0.00049179645975104232 9.3754426021946179e-05 0.00029585229394717475 -0.00059697328396132515 6.9661879249262776e-05 0.00028426503902397482 -0.00054514505654027596 9.2153074067310618e-05 0.00025795664304915076 -0.0005082884359499507 7.7780276585797021e-05 0.00032459362842015801 -0.0006376069019085256 5.8194862539965245e-05 0.00029585229394717475 -0.00059697328396132515 6.9661879249262776e-05 0.00028426503902397482 -0.00054514505654027596 9.2153074067310618e-05 0.00025795664304915076 -0.0005082884359499507 7.7780276585797021e-05 0.000242748970617043 -0.00049179645975104232 9.3754426021946179e-05 0.00030120489203720838 -0.00059344518997783583 8.6320492598299242e-05 0.00029585229394717475 -0.00059697328396132515 6.9661879249262776e-05 0.00034770210902907957 -0.00066276130483663618 8.243869051460807e-05 0.00028426503902397482 -0.00054514505654027596 9.2153074067310618e-05 0.00030120489203720838 -0.00059344518997783583 8.6320492598299242e-05 0.00029585229394717475 -0.00059697328396132515 6.9661879249262776e-05 0.00028426503902397482 -0.00054514505654027596 9.2153074067310618e-05 0.000242748970617043 -0.00049179645975104232 9.3754426021946179e-05 0.00037409160007991805 -0.000722861202349907 6.3037742214883303e-05 0.00029585229394717475 -0.00059697328396132515 6.9661879249262776e-05 0.00034770210902907957 -0.00066276130483663618 8.243869051460807e-05 0.00032459362842015801 -0.0006376069019085256 5.8194862539965245e-05 0.00029585229394717475 -0.00059697328396132515 6.9661879249262776e-05 0.00034770210902907957 -0.00066276130483663618 8.243869051460807e-05 0.00028426503902397482 -0.00054514505654027596 9.2153074067310618e-05 0.00032459362842015801 -0.0006376069019085256 5.8194862539965245e-05 0.00034770210902907957 -0.00066276130483663618 8.243869051460807e-05 0.00028426503902397482 -0.00054514505654027596 9.2153074067310618e-05 0.00032459362842015801 -0.0006376069019085256 5.8194862539965245e-05 0.0003413521456583658 -0.00063339827098326303 8.6488087466136414e-05 0.00028426503902397482 -0.00054514505654027596 9.2153074067310618e-05 0.00032078422719087393 -0.00060583854763914154 6.8887935874967156e-05 0.0003413521456583658 -0.00063339827098326303 8.6488087466136414e-05 0.00030328929178698898 -0.00055341294586139244 9.3806108198952215e-05 0.00028426503902397482 -0.00054514505654027596 9.2153074067310618e-05 0.00025795664304915076 -0.0005082884359499507 7.7780276585797021e-05 0.00032459362842015801 -0.0006376069019085256 5.8194862539965245e-05 0.00032078422719087393 -0.00060583854763914154 6.8887935874967156e-05 0.00028426503902397482 -0.00054514505654027596 9.2153074067310618e-05 0.00032459362842015801 -0.0006376069019085256 5.8194862539965245e-05 0.00032078422719087393 -0.00060583854763914154 6.8887935874967156e-05 0.0003413521456583658 -0.00063339827098326303 8.6488087466136414e-05 0.00028426503902397482 -0.00054514505654027596 9.2153074067310618e-05 0.00025795664304915076 -0.0005082884359499507 7.7780276585797021e-05 0.00032078422719087393 -0.00060583854763914154 6.8887935874967156e-05 0.00030328929178698898 -0.00055341294586139244 9.3806108198952215e-05 0.00028426503902397482 -0.00054514505654027596 9.2153074067310618e-05 0.00025795664304915076 -0.0005082884359499507 7.7780276585797021e-05 0.00022803306546486323 -0.00042874022909575001 0.00010281598536764635 0.00020168758075922132 -0.00040151509880680857 0.00010302854952266975 0.00025822068282676505 -0.00052620308120717536 5.0031650985676663e-05 0.00032459362842015801 -0.0006376069019085256 5.8194862539965245e-05 0.0002549256181199216 -0.00055492083990219801 3.1708623766630702e-05 0.00023300667349580046 -0.00049345614551908005 6.3420014288420205e-05 0.00031505243865990052 -0.00066145859184454914 3.8572621547078206e-05 0.00032459362842015801 -0.0006376069019085256 5.8194862539965245e-05 0.0002549256181199216 -0.00055492083990219801 3.1708623766630702e-05 0.00023300667349580046 -0.00049345614551908005 6.3420014288420205e-05 0.00025795664304915076 -0.0005082884359499507 7.7780276585797021e-05 0.00025822068282676505 -0.00052620308120717536 5.0031650985676663e-05 0.00032459362842015801 -0.0006376069019085256 5.8194862539965245e-05 0.00023300667349580046 -0.00049345614551908005 6.3420014288420205e-05 0.00025795664304915076 -0.0005082884359499507 7.7780276585797021e-05 0.00025822068282676505 -0.00052620308120717536 5.0031650985676663e-05 0.00020625483221022934 -0.00041326941306004062 7.9620432409092433e-05 0.00023300667349580046 -0.00049345614551908005 6.3420014288420205e-05 0.00029585229394717475 -0.00059697328396132515 6.9661879249262776e-05 0.00025795664304915076 -0.0005082884359499507 7.7780276585797021e-05 0.00032459362842015801 -0.0006376069019085256 5.8194862539965245e-05 0.00023300667349580046 -0.00049345614551908005 6.3420014288420205e-05 0.00025822068282676505 -0.00052620308120717536 5.0031650985676663e-05 0.00032459362842015801 -0.0006376069019085256 5.8194862539965245e-05 0.000341333404281859 -0.00069213576620187557 2.6410463131805363e-05 0.0003193502068336917 -0.00062538857056141186 3.9210250186022675e-05 0.00025822068282676505 -0.00052620308120717536 5.0031650985676663e-05 0.00032459362842015801 -0.0006376069019085256 5.8194862539965245e-05 0.000341333404281859 -0.00069213576620187557 2.6410463131805363e-05 0.0002549256181199216 -0.00055492083990219801 3.1708623766630702e-05 0.00025822068282676505 -0.00052620308120717536 5.0031650985676663e-05 0.00032459362842015801 -0.0006376069019085256 5.8194862539965245e-05 0.0003193502068336917 -0.00062538857056141186 3.9210250186022675e-05 0.00032078422719087393 -0.00060583854763914154 6.8887935874967156e-05 0.00025795664304915076 -0.0005082884359499507 7.7780276585797021e-05 0.00025822068282676505 -0.00052620308120717536 5.0031650985676663e-05 0.00032459362842015801 -0.0006376069019085256 5.8194862539965245e-05 0.00032078422719087393 -0.00060583854763914154 6.8887935874967156e-05 0.00032459362842015801 -0.0006376069019085256 5.8194862539965245e-05 0.0003193502068336917 -0.00062538857056141186 3.9210250186022675e-05 0.00037966848634745151 -0.00072629859792293795 3.831538262195713e-05 0.00032078422719087393 -0.00060583854763914154 6.8887935874967156e-05 0.00037966848634745151 -0.00072629859792293795 3.831538262195713e-05 0.00038281400104008451 -0.00071159515980951185 6.3309169498989957e-05 0.00032078422719087393 -0.00060583854763914154 6.8887935874967156e-05 0.00036001438708541794 -0.00065978047042588119 6.2309282918573378e-05 0.0003193502068336917 -0.00062538857056141186 3.9210250186022675e-05 0.00037966848634745151 -0.00072629859792293795 3.831538262195713e-05 0.00032078422719087393 -0.00060583854763914154 6.8887935874967156e-05 0.00036001438708541794 -0.00065978047042588119 6.2309282918573378e-05 0.00032459362842015801 -0.0006376069019085256 5.8194862539965245e-05 0.00037966848634745151 -0.00072629859792293795 3.831538262195713e-05 0.00038281400104008451 -0.00071159515980951185 6.3309169498989957e-05 0.00032078422719087393 -0.00060583854763914154 6.8887935874967156e-05 0.00037409160007991805 -0.000722861202349907 6.3037742214883303e-05 0.00037037685135786973 -0.00073227338152109225 4.0963513944208528e-05 0.00032459362842015801 -0.0006376069019085256 5.8194862539965245e-05 0.00040218511179553084 -0.00076615652993954704 5.1796256586598502e-05 0.00037037685135786973 -0.00073227338152109225 4.0963513944208528e-05 0.00032459362842015801 -0.0006376069019085256 5.8194862539965245e-05 0.00037966848634745151 -0.00072629859792293795 3.831538262195713e-05 0.00040218511179553084 -0.00076615652993954704 5.1796256586598502e-05 0.00032459362842015801 -0.0006376069019085256 5.8194862539965245e-05 0.00037966848634745151 -0.00072629859792293795 3.831538262195713e-05 0.00040218511179553084 -0.00076615652993954704 5.1796256586598502e-05 0.00038281400104008451 -0.00071159515980951185 6.3309169498989957e-05 0.00037037685135786973 -0.00073227338152109225 4.0963513944208528e-05 0.00032459362842015801 -0.0006376069019085256 5.8194862539965245e-05 0.000341333404281859 -0.00069213576620187557 2.6410463131805363e-05 0.00037966848634745151 -0.00072629859792293795 3.831538262195713e-05 0.00040259680617613693 -0.00078715354731815083 2.8726074897410094e-05 0.00037037685135786973 -0.00073227338152109225 4.0963513944208528e-05 0.000341333404281859 -0.00069213576620187557 2.6410463131805363e-05 0.00037966848634745151 -0.00072629859792293795 3.831538262195713e-05 0.00040259680617613693 -0.00078715354731815083 2.8726074897410094e-05 0.000341333404281859 -0.00069213576620187557 2.6410463131805363e-05 0.00037966848634745151 -0.00072629859792293795 3.831538262195713e-05 0.00039052964137173413 -0.00077718822197947609 8.37880064788768e-06 0.00032459362842015801 -0.0006376069019085256 5.8194862539965245e-05 0.000341333404281859 -0.00069213576620187557 2.6410463131805363e-05 0.0003193502068336917 -0.00062538857056141186 3.9210250186022675e-05 0.00037966848634745151 -0.00072629859792293795 3.831538262195713e-05 0.000341333404281859 -0.00069213576620187557 2.6410463131805363e-05 0.0003193502068336917 -0.00062538857056141186 3.9210250186022675e-05 0.00037966848634745151 -0.00072629859792293795 3.831538262195713e-05 0.00039052964137173413 -0.00077718822197947609 8.37880064788768e-06 0.0003193502068336917 -0.00062538857056141186 3.9210250186022675e-05 0.00037966848634745151 -0.00072629859792293795 3.831538262195713e-05 0.0003490446031638