<?xml version="1.0"?>
<VTKFile type="UnstructuredGrid" version="0.1" byte_order="LittleEndian">
<UnstructuredGrid>
<Piece NumberOfPoints="23348" NumberOfCells="5837">
<Points>
<DataArray type="Float64" NumberOfComponents="3" format="ascii">
0 0 0 0.097115124458785854 0.097115124458952359 0 0.097115124458877891 0 0.097115124458877891 0 0.097115124458952332 0.097115124458785826 0 0 0 0.097115124458785854 0.097115124458952359 0 0 0.097115124458952332 0.097115124458785826 0 0.12500000000052011 0 0.097115124458785854 0.097115124458952359 0 0.097115124458877891 0 0.097115124458877891 0.12419936572934499 0.12419936572934991 0.12419936572934499 0.18109440156403669 0.073316820370859126 0 0 0 0 0.097115124458785854 0.097115124458952359 0 0.12499999999977381 0 0 0.097115124458877891 0 0.097115124458877891 0.097115124458785854 0.097115124458952359 0 0.097115124458877891 0 0.097115124458877891 0.12419936572934499 0.12419936572934991 0.12419936572934499 0 0.097115124458952332 0.097115124458785826 0.097115124458877891 0 0.097115124458877891 0.12419936572934499 0.12419936572934991 0.12419936572934499 0 0.097115124458952332 0.097115124458785826 0 0.073316820370859764 0.18109440156403181 0 0 0 0.097115124458877891 0 0.097115124458877891 0 0.097115124458952332 0.097115124458785826 0 0 0.12499999999977381 0.097115124458877891 0 0.097115124458877891 0 0 0.12499999999977381 0.072551601355543657 0 0.18244710269698541 0 0.073316820370859764 0.18109440156403181 0.097115124458877891 0 0.097115124458877891 0 0.097115124458952332 0.097115124458785826 0 0 0.12499999999977381 0 0.073316820370859764 0.18109440156403181 0 0 0.12499999999977381 0.072551601355543657 0 0.18244710269698541 0 0 0.24999999999941239 0 0.073316820370859764 0.18109440156403181 0.12419936572934499 0.12419936572934991 0.12419936572934499 0.072551601355543657 0 0.18244710269698541 0.094253224990982931 0.094721783843713464 0.21922689007767099 0.16806798983650961 0 0.17009619771994811 0.097115124458877891 0 0.097115124458877891 0.12419936572934499 0.12419936572934991 0.12419936572934499 0.072551601355543657 0 0.18244710269698541 0 0.073316820370859764 0.18109440156403181 0.097115124458877891 0 0.097115124458877891 0.12419936572934499 0.12419936572934991 0.12419936572934499 0.072551601355543657 0 0.18244710269698541 0.16806798983650961 0 0.17009619771994811 0.072551601355543657 0 0.18244710269698541 0.094253224990982931 0.094721783843713464 0.21922689007767099 0.16806798983650961 0 0.17009619771994811 0.097574892482330866 0 0.27002419130691452 0.072551601355543657 0 0.18244710269698541 0 0 0.24999999999941239 0.094253224990982931 0.094721783843713464 0.21922689007767099 0.097574892482330866 0 0.27002419130691452 0.072551601355543657 0 0.18244710269698541 0 0 0.24999999999941239 0.094253224990982931 0.094721783843713464 0.21922689007767099 0 0.073316820370859764 0.18109440156403181 0 0 0.24999999999941239 0.094253224990982931 0.094721783843713464 0.21922689007767099 0 0.073316820370859764 0.18109440156403181 0 0.099372779675467607 0.26528889352553142 0.094253224990982931 0.094721783843713464 0.21922689007767099 0 0.073316820370859764 0.18109440156403181 0 0.17009619771987891 0.16806798983665569 0 0.099372779675467607 0.26528889352553142 0.12419936572934499 0.12419936572934991 0.12419936572934499 0.072551601355543657 0 0.18244710269698541 0.094253224990982931 0.094721783843713464 0.21922689007767099 0 0.073316820370859764 0.18109440156403181 0.12419936572934499 0.12419936572934991 0.12419936572934499 0 0.097115124458952332 0.097115124458785826 0 0.073316820370859764 0.18109440156403181 0 0.17009619771987891 0.16806798983665569 0.12419936572934499 0.12419936572934991 0.12419936572934499 0.094253224990982931 0.094721783843713464 0.21922689007767099 0 0.073316820370859764 0.18109440156403181 0 0.17009619771987891 0.16806798983665569 0.094253224990982931 0.094721783843713464 0.21922689007767099 0 0.17009619771987891 0.16806798983665569 0.1055205876391771 0.23687748508386991 0.2497490569261725 0 0.2134112930234815 0.28239564278595841 0.12419936572934499 0.12419936572934991 0.12419936572934499 0 0.17009619771987891 0.16806798983665569 0.1055205876391771 0.23687748508386991 0.2497490569261725 0.086822440026975076 0.19572223157545479 0.086822408368862153 0 0.17009619771987891 0.16806798983665569 0.1055205876391771 0.23687748508386991 0.2497490569261725 0.1243678721851567 0.26706839432809498 0.1243678134120486 0 0.28674406688656878 0.2119407166408592 0 0.17009619771987891 0.16806798983665569 0.1055205876391771 0.23687748508386991 0.2497490569261725 0.086822440026975076 0.19572223157545479 0.086822408368862153 0.1243678721851567 0.26706839432809498 0.1243678134120486 0.12419936572934499 0.12419936572934991 0.12419936572934499 0.094253224990982931 0.094721783843713464 0.21922689007767099 0 0.17009619771987891 0.16806798983665569 0.1055205876391771 0.23687748508386991 0.2497490569261725 0.12419936572934499 0.12419936572934991 0.12419936572934499 0.1055205876391771 0.23687748508386991 0.2497490569261725 0.086822440026975076 0.19572223157545479 0.086822408368862153 0.1243678721851567 0.26706839432809498 0.1243678134120486 0.094253224990982931 0.094721783843713464 0.21922689007767099 0 0.17009619771987891 0.16806798983665569 0 0.099372779675467607 0.26528889352553142 0 0.2134112930234815 0.28239564278595841 0 0.17009619771987891 0.16806798983665569 0.1055205876391771 0.23687748508386991 0.2497490569261725 0 0.2134112930234815 0.28239564278595841 0 0.28674406688656878 0.2119407166408592 0 0.17009619771987891 0.16806798983665569 0.1243678721851567 0.26706839432809498 0.1243678134120486 0 0.26324808216617729 0.1061976352567853 0 0.28674406688656878 0.2119407166408592 0 0.12500000000052011 0 0 0.1810918808693138 0.074276149910445372 0.074276107326000554 0.181091756664682 0 0 0.25000000000104039 0 0 0.17009619771987891 0.16806798983665569 0 0.1810918808693138 0.074276149910445372 0.086822440026975076 0.19572223157545479 0.086822408368862153 0 0.26324808216617729 0.1061976352567853 0 0.1810918808693138 0.074276149910445372 0.086822440026975076 0.19572223157545479 0.086822408368862153 0 0.25000000000104039 0 0 0.26324808216617729 0.1061976352567853 0 0.17009619771987891 0.16806798983665569 0.086822440026975076 0.19572223157545479 0.086822408368862153 0.1243678721851567 0.26706839432809498 0.1243678134120486 0 0.26324808216617729 0.1061976352567853 0 0.1810918808693138 0.074276149910445372 0.074276107326000554 0.181091756664682 0 0.086822440026975076 0.19572223157545479 0.086822408368862153 0 0.25000000000104039 0 0 0.097115124458952332 0.097115124458785826 0 0.12500000000052011 0 0 0.1810918808693138 0.074276149910445372 0.074276107326000554 0.181091756664682 0 0.097115124458785854 0.097115124458952359 0 0 0.097115124458952332 0.097115124458785826 0 0.12500000000052011 0 0.074276107326000554 0.181091756664682 0 0.12419936572934499 0.12419936572934991 0.12419936572934499 0 0.097115124458952332 0.097115124458785826 0 0.17009619771987891 0.16806798983665569 0.086822440026975076 0.19572223157545479 0.086822408368862153 0 0.097115124458952332 0.097115124458785826 0 0.17009619771987891 0.16806798983665569 0 0.1810918808693138 0.074276149910445372 0.086822440026975076 0.19572223157545479 0.086822408368862153 0 0.097115124458952332 0.097115124458785826 0 0.1810918808693138 0.074276149910445372 0.074276107326000554 0.181091756664682 0 0.086822440026975076 0.19572223157545479 0.086822408368862153 0.097115124458785854 0.097115124458952359 0 0.12419936572934499 0.12419936572934991 0.12419936572934499 0 0.097115124458952332 0.097115124458785826 0.086822440026975076 0.19572223157545479 0.086822408368862153 0.097115124458785854 0.097115124458952359 0 0.12419936572934499 0.12419936572934991 0.12419936572934499 0.086822440026975076 0.19572223157545479 0.086822408368862153 0.1680679898366586 0.1700961977198677 0 0.097115124458785854 0.097115124458952359 0 0.074276107326000554 0.181091756664682 0 0.086822440026975076 0.19572223157545479 0.086822408368862153 0.1680679898366586 0.1700961977198677 0 0.097115124458785854 0.097115124458952359 0 0 0.097115124458952332 0.097115124458785826 0.074276107326000554 0.181091756664682 0 0.086822440026975076 0.19572223157545479 0.086822408368862153 0.074276107326000554 0.181091756664682 0 0.086822440026975076 0.19572223157545479 0.086822408368862153 0.1680679898366586 0.1700961977198677 0 0.10619742233455839 0.26324746114302938 0 0.074276107326000554 0.181091756664682 0 0.086822440026975076 0.19572223157545479 0.086822408368862153 0.10619742233455839 0.26324746114302938 0 0 0.25000000000104039 0 0.086822440026975076 0.19572223157545479 0.086822408368862153 0.18062325821465611 0.1956052712478995 0.092188851782424766 0.1243678721851567 0.26706839432809498 0.1243678134120486 0.10619742233455839 0.26324746114302938 0 0.18062325821465611 0.1956052712478995 0.092188851782424766 0.20947230887645699 0.091219526211827801 0.091219526211837418 0.26528889352555279 0.099372779675475503 0 0.2905827652531755 0.1290871134635436 0.12908711346355961 0.12419936572934499 0.12419936572934991 0.12419936572934499 0.086822440026975076 0.19572223157545479 0.086822408368862153 0.18062325821465611 0.1956052712478995 0.092188851782424766 0.1243678721851567 0.26706839432809498 0.1243678134120486 0.18062325821465611 0.1956052712478995 0.092188851782424766 0.1680679898366586 0.1700961977198677 0 0.21199123149808141 0.28671388592782698 0 0.10619742233455839 0.26324746114302938 0 0.086822440026975076 0.19572223157545479 0.086822408368862153 0.18062325821465611 0.1956052712478995 0.092188851782424766 0.1680679898366586 0.1700961977198677 0 0.10619742233455839 0.26324746114302938 0 0.12419936572934499 0.12419936572934991 0.12419936572934499 0.086822440026975076 0.19572223157545479 0.086822408368862153 0.18062325821465611 0.1956052712478995 0.092188851782424766 0.1680679898366586 0.1700961977198677 0 0.12419936572934499 0.12419936572934991 0.12419936572934499 0.18062325821465611 0.1956052712478995 0.09218885178242
[...]
<PointData Scalars="" Vectors="displacement," Tensors="">
<DataArray type="Float64" Name="displacement" NumberOfComponents="3" format="ascii">
-6.1615369781657382e-14 6.2115926559459402e-09 -6.3286191803020919e-14 -2.4278579920955553e-05 9.7119489794397507e-05 3.5981582118655668e-14 -2.4278707110013182e-05 3.6085201594935712e-09 -2.4278730102012163e-05 3.574788534162153e-14 9.711947114008642e-05 -2.4278585666202367e-05 -6.1615369781657382e-14 6.2115926559459402e-09 -6.3286191803020919e-14 -2.4278579920955553e-05 9.7119489794397507e-05 3.5981582118655668e-14 3.574788534162153e-14 9.711947114008642e-05 -2.4278585666202367e-05 6.8498392025815917e-15 0.00012500467340874216 9.7141918741514955e-15 -2.4278579920955553e-05 9.7119489794397507e-05 3.5981582118655668e-14 -2.4278707110013182e-05 3.6085201594935712e-09 -2.4278730102012163e-05 -3.104987733875556e-05 0.00012420345630267962 -3.1049884983801465e-05 -4.5273504433132727e-05 7.3320697057527106e-05 3.6426564480347701e-14 -6.1615369781657382e-14 6.2115926559459402e-09 -6.3286191803020919e-14 -2.4278579920955553e-05 9.7119489794397507e-05 3.5981582118655668e-14 -3.1250200569977802e-05 4.2098433433099856e-09 -4.4806339287179552e-14 -2.4278707110013182e-05 3.6085201594935712e-09 -2.4278730102012163e-05 -2.4278579920955553e-05 9.7119489794397507e-05 3.5981582118655668e-14 -2.4278707110013182e-05 3.6085201594935712e-09 -2.4278730102012163e-05 -3.104987733875556e-05 0.00012420345630267962 -3.1049884983801465e-05 3.574788534162153e-14 9.711947114008642e-05 -2.4278585666202367e-05 -2.4278707110013182e-05 3.6085201594935712e-09 -2.4278730102012163e-05 -3.104987733875556e-05 0.00012420345630267962 -3.1049884983801465e-05 3.574788534162153e-14 9.711947114008642e-05 -2.4278585666202367e-05 3.9429178995685844e-14 7.3320683488107009e-05 -4.5273494904702233e-05 -6.1615369781657382e-14 6.2115926559459402e-09 -6.3286191803020919e-14 -2.4278707110013182e-05 3.6085201594935712e-09 -2.4278730102012163e-05 3.574788534162153e-14 9.711947114008642e-05 -2.4278585666202367e-05 -4.4768226103258124e-14 4.190668131293888e-09 -3.1250199887929214e-05 -2.4278707110013182e-05 3.6085201594935712e-09 -2.4278730102012163e-05 -4.4768226103258124e-14 4.190668131293888e-09 -3.1250199887929214e-05 -1.8137883914369395e-05 2.7247581102878242e-09 -4.561163546352961e-05 3.9429178995685844e-14 7.3320683488107009e-05 -4.5273494904702233e-05 -2.4278707110013182e-05 3.6085201594935712e-09 -2.4278730102012163e-05 3.574788534162153e-14 9.711947114008642e-05 -2.4278585666202367e-05 -4.4768226103258124e-14 4.190668131293888e-09 -3.1250199887929214e-05 3.9429178995685844e-14 7.3320683488107009e-05 -4.5273494904702233e-05 -4.4768226103258124e-14 4.190668131293888e-09 -3.1250199887929214e-05 -1.8137883914369395e-05 2.7247581102878242e-09 -4.561163546352961e-05 1.0032942461340377e-14 3.9950561074633422e-09 -6.2499761096574327e-05 3.9429178995685844e-14 7.3320683488107009e-05 -4.5273494904702233e-05 -3.104987733875556e-05 0.00012420345630267962 -3.1049884983801465e-05 -1.8137883914369395e-05 2.7247581102878242e-09 -4.561163546352961e-05 -2.3563318598110043e-05 9.4725924663485657e-05 -5.4806887141295277e-05 -4.2016888859787056e-05 4.2395405212521445e-09 -4.2524048416809537e-05 -2.4278707110013182e-05 3.6085201594935712e-09 -2.4278730102012163e-05 -3.104987733875556e-05 0.00012420345630267962 -3.1049884983801465e-05 -1.8137883914369395e-05 2.7247581102878242e-09 -4.561163546352961e-05 3.9429178995685844e-14 7.3320683488107009e-05 -4.5273494904702233e-05 -2.4278707110013182e-05 3.6085201594935712e-09 -2.4278730102012163e-05 -3.104987733875556e-05 0.00012420345630267962 -3.1049884983801465e-05 -1.8137883914369395e-05 2.7247581102878242e-09 -4.561163546352961e-05 -4.2016888859787056e-05 4.2395405212521445e-09 -4.2524048416809537e-05 -1.8137883914369395e-05 2.7247581102878242e-09 -4.561163546352961e-05 -2.3563318598110043e-05 9.4725924663485657e-05 -5.4806887141295277e-05 -4.2016888859787056e-05 4.2395405212521445e-09 -4.2524048416809537e-05 -2.4393748636411545e-05 4.7071103848242972e-09 -6.7505946255013512e-05 -1.8137883914369395e-05 2.7247581102878242e-09 -4.561163546352961e-05 1.0032942461340377e-14 3.9950561074633422e-09 -6.2499761096574327e-05 -2.3563318598110043e-05 9.4725924663485657e-05 -5.4806887141295277e-05 -2.4393748636411545e-05 4.7071103848242972e-09 -6.7505946255013512e-05 -1.8137883914369395e-05 2.7247581102878242e-09 -4.561163546352961e-05 1.0032942461340377e-14 3.9950561074633422e-09 -6.2499761096574327e-05 -2.3563318598110043e-05 9.4725924663485657e-05 -5.4806887141295277e-05 3.9429178995685844e-14 7.3320683488107009e-05 -4.5273494904702233e-05 1.0032942461340377e-14 3.9950561074633422e-09 -6.2499761096574327e-05 -2.3563318598110043e-05 9.4725924663485657e-05 -5.4806887141295277e-05 3.9429178995685844e-14 7.3320683488107009e-05 -4.5273494904702233e-05 -6.9677172490514997e-15 9.9377222333187052e-05 -6.6322377505338641e-05 -2.3563318598110043e-05 9.4725924663485657e-05 -5.4806887141295277e-05 3.9429178995685844e-14 7.3320683488107009e-05 -4.5273494904702233e-05 -7.5991266270733622e-15 0.00017010045443735419 -4.2017000324167309e-05 -6.9677172490514997e-15 9.9377222333187052e-05 -6.6322377505338641e-05 -3.104987733875556e-05 0.00012420345630267962 -3.1049884983801465e-05 -1.8137883914369395e-05 2.7247581102878242e-09 -4.561163546352961e-05 -2.3563318598110043e-05 9.4725924663485657e-05 -5.4806887141295277e-05 3.9429178995685844e-14 7.3320683488107009e-05 -4.5273494904702233e-05 -3.104987733875556e-05 0.00012420345630267962 -3.1049884983801465e-05 3.574788534162153e-14 9.711947114008642e-05 -2.4278585666202367e-05 3.9429178995685844e-14 7.3320683488107009e-05 -4.5273494904702233e-05 -7.5991266270733622e-15 0.00017010045443735419 -4.2017000324167309e-05 -3.104987733875556e-05 0.00012420345630267962 -3.1049884983801465e-05 -2.3563318598110043e-05 9.4725924663485657e-05 -5.4806887141295277e-05 3.9429178995685844e-14 7.3320683488107009e-05 -4.5273494904702233e-05 -7.5991266270733622e-15 0.00017010045443735419 -4.2017000324167309e-05 -2.3563318598110043e-05 9.4725924663485657e-05 -5.4806887141295277e-05 -7.5991266270733622e-15 0.00017010045443735419 -4.2017000324167309e-05 -2.6380160791592699e-05 0.00023688191761807249 -6.2437346145086957e-05 4.2167256356577382e-15 0.00021341580057445647 -7.0598998065591264e-05 -3.104987733875556e-05 0.00012420345630267962 -3.1049884983801465e-05 -7.5991266270733622e-15 0.00017010045443735419 -4.2017000324167309e-05 -2.6380160791592699e-05 0.00023688191761807249 -6.2437346145086957e-05 -2.1705619874260706e-05 0.00019572651032165556 -2.1705599172123981e-05 -7.5991266270733622e-15 0.00017010045443735419 -4.2017000324167309e-05 -2.6380160791592699e-05 0.00023688191761807249 -6.2437346145086957e-05 -3.1091997751223185e-05 0.00026707277388639153 -3.1091976926887284e-05 7.5154326740038026e-16 0.00028674851060724699 -5.2985239987461166e-05 -7.5991266270733622e-15 0.00017010045443735419 -4.2017000324167309e-05 -2.6380160791592699e-05 0.00023688191761807249 -6.2437346145086957e-05 -2.1705619874260706e-05 0.00019572651032165556 -2.1705599172123981e-05 -3.1091997751223185e-05 0.00026707277388639153 -3.1091976926887284e-05 -3.104987733875556e-05 0.00012420345630267962 -3.1049884983801465e-05 -2.3563318598110043e-05 9.4725924663485657e-05 -5.4806887141295277e-05 -7.5991266270733622e-15 0.00017010045443735419 -4.2017000324167309e-05 -2.6380160791592699e-05 0.00023688191761807249 -6.2437346145086957e-05 -3.104987733875556e-05 0.00012420345630267962 -3.1049884983801465e-05 -2.6380160791592699e-05 0.00023688191761807249 -6.2437346145086957e-05 -2.1705619874260706e-05 0.00019572651032165556 -2.1705599172123981e-05 -3.1091997751223185e-05 0.00026707277388639153 -3.1091976926887284e-05 -2.3563318598110043e-05 9.4725924663485657e-05 -5.4806887141295277e-05 -7.5991266270733622e-15 0.00017010045443735419 -4.2017000324167309e-05 -6.9677172490514997e-15 9.9377222333187052e-05 -6.6322377505338641e-05 4.2167256356577382e-15 0.00021341580057445647 -7.0598998065591264e-05 -7.5991266270733622e-15 0.00017010045443735419 -4.2017000324167309e-05 -2.6380160791592699e-05 0.00023688191761807249 -6.2437346145086957e-05 4.2167256356577382e-15 0.00021341580057445647 -7.0598998065591264e-05 7.5154326740038026e-16 0.00028674851060724699 -5.2985239987461166e-05 -7.5991266270733622e-15 0.00017010045443735419 -4.2017000324167309e-05 -3.1091997751223185e-05 0.00026707277388639153 -3.1091976926887284e-05 3.4213970058581557e-15 0.0002632524576358859 -2.6549418437039995e-05 7.5154326740038026e-16 0.00028674851060724699 -5.2985239987461166e-05 6.8498392025815917e-15 0.00012500467340874216 9.7141918741514955e-15 -7.3329348464181445e-15 0.00018109622588176189 -1.8568992948236203e-05 -1.856898178188069e-05 0.00018109610997231741 -8.9059625348014646e-15 4.3441054557327219e-15 0.00025000439560457982 3.8437813800954767e-15 -7.5991266270733622e-15 0.00017010045443735419 -4.2017000324167309e-05 -7.3329348464181445e-15 0.00018109622588176189 -1.8568992948236203e-05 -2.1705619874260706e-05 0.00019572651032165556 -2.1705599172123981e-05 3.4213970058581557e-15 0.0002632524576358859 -2.6549418437039995e-05 -7.3329348464181445e-15 0.00018109622588176189 -1.8568992948236203e-05 -2.1705619874260706e-05 0.00019572651032165556 -2.1705599172123981e-05 4.3441054557327219e-15 0.00025000439560457982 3.8437813800954767e-15 3.4213970058581557e-15 0.0002632524576358859 -2.6549418437039995e-05 -7.5991266270733622e-15 0.00017010045443735419 -4.2017000324167309e-05 -2.1705619874260706e-05 0.00019572651032165556 -2.1705599172123981e-05 -3.1091997751223185e-05 0.00026707277388639153 -3.1091976926887284e-05 3.4213970058581557e-15 0.0002632524576358859 -2.6549418437039995e-05 -7.3329348464181445e-15 0.00018109622588176189 -1.8568992948236203e-05 -1.856898178188069e-05 0.00018109610997231741 -8.9059625348014646e-15 -2.1705619874260706e-05 0.00019572651032165556 -2.1705599172123981e-05 4.3441054557327219e-15 0.00025000439560457982 3.8437813800954767e-15 3.574788534162153e-14 9.711947114008642e-05 -2.4278585666202367e-05 6.8498392025815917e-15 0.00012500467340874216 9.7141918741514955e-15 -7.3329348464181445e-15 0.00018109622588176189 -1.8568992948236203e-05 -1.856898178188069e-05 0.00018109610997231741 -8.9059625348014646e-15 -2.4278579920955553e-05 9.7119489794397507e-05 3.5981582118655668e-14 3.574788534162153e-14 9.711947114008642e-05 -2.4278585666202367e-05 6.8498392025815917e-15 0.00012500467340874216 9.7141918741514955e-15 -1.856898178188069e-05 0.00018109610997231741 -8.9059625348014646e-15 -3.104987733875556e-05 0.00012420345630267962 -3.1049884983801465e-05 3.574788534162153e-14 9.711947114008642e-05 -2.4278585666202367e-05 -7.5991266270733622e-15 0.00017010045443735419 -4.2017000324167309e-05 -2.1705619874260706e-05 0.00019572651032165556 -2.1705599172123981e-05 3.574788534162153e-14 9.711947114008642e-05 -2.4278585666202367e-05 -7.5991266270733622e-15 0.00017010045443735419 -4.2017000324167309e-05 -7.3329348464181445e-15 0.00018109622588176189 -1.8568992948236203e-05 -2.1705619874260706e-05 0.00019572651032165556 -2.1705599172123981e-05 3.574788534162153e-14 9.711947114008642e-05 -2.4278585666202367e-05 -7.3329348464181445e-15 0.00018109622588176189 -1.8568992948236203e-05 -1.856898178188069e-05 0.00018109610997231741 -8.9059625348014646e-15 -2.1705619874260706e-05 0.00019572651032165556 -2.1705599172123981e-05 -2.4278579920955553e-05 9.7119489794397507e-05 3.5981582118655668e-14 -3.104987733875556e-05 0.00012420345630267962 -3.1049884983801465e-05 3.574788534162153e-14 9.711947114008642e-05 -2.4278585666202367e-05 -2.1705619874260706e-05 0.00019572651032165556 -2.1705599172123981e-05 -2.4278579920955553e-05 9.7119489794397507e-05 3.5981582118655668e-14 -3.104987733875556e-05 0.00012420345630267962 -3.1049884983801465e-05 -2.1705619874260706e-05 0.00019572651032165556 -2.1705599172123981e-05 -4.2016990744399619e-05 0.00017010049057558226 -7.4293927138752967e-15 -2.4278579920955553e-05 9.7119489794397507e-05 3.5981582118655668e-14 -1.856898178188069e-05 0.00018109610997231741 -8.9059625348014646e-15 -2.1705619874260706e-05 0.00019572651032165556 -2.1705599172123981e-05 -4.2016990744399619e-05 0.00017010049057558226 -7.4293927138752967e-15 -2.4278579920955553e-05 9.7119489794397507e-05 3.5981582118655668e-14 3.574788534162153e-14 9.711947114008642e-05 -2.4278585666202367e-05 -1.856898178188069e-05 0.00018109610997231741 -8.9059625348014646e-15 -2.1705619874260706e-05 0.00019572651032165556 -2.1705599172123981e-05 -1.856898178188069e-05 0.00018109610997231741 -8.9059625348014646e-15 -2.1705619874260706e-05 0.00019572651032165556 -2.1705599172123981e-05 -4.2016990744399619e-05 0.00017010049057558226 -7.4293927138752967e-15 -2.6549367714629419e-05 0.00026325184996076566 3.6376862518101053e-15 -1.856898178188069e-05 0.00018109610997231741 -8.9059625348014646e-15 -2.1705619874260706e-05 0.00019572651032165556 -2.1705599172123981e-05 -2.6549367714629419e-05 0.00026325184996076566 3.6376862518101053e-15 4.3441054557327219e-15 0.00025000439560457982 3.8437813800954767e-15 -2.1705619874260706e-05 0.00019572651032165556 -2.1705599172123981e-05 -4.5155886443045368e-05 0.00019560955700899802 -2.304720667446857e-05 -3.1091997751223185e-05 0.00026707277388639153 -3.1091976926887284e-05 -2.6549367714629419e-05 0.00026325184996076566 3.6376862518101053e-15 -4.5155886443045368e-05 0.00019560955700899802 -2.304720667446857e-05 -5.2368230747523415e-05 9.1223581686625602e-05 -2.2804962074949665e-05 -6.6322404754722177e-05 9.9377289419767348e-05 -2.2369140876306712e-15 -7.2645814448192949e-05 0.00012909174756856067 -3.2271727849598636e-05 -3.104987733875556e-05 0.00012420345630267962 -3.1049884983801465e-05 -2.1705619874260706e-05 0.00019572651032165556 -2.1705599172123981e-05 -4.5155886443045368e-05 0.00019560955700899802 -2.304720667446857e-05 -3.1091997751223185e-05 0.00026707277388639153 -3.1091976926887284e-05 -4.5155886443045368e-05 0.00019560955700899802 -2.304720667446857e-05 -4.2016990744399619e-05 0.00017010049057558226 -7.4293927138752967e-15 -5.2997874689062202e-05 0.00028671835067717218 3.5672734690883918e-15 -2.6549367714629419e-05 0.00026325184996076566 3.6376862518101053e-15 -2.1705619874260706e-05 0.00019572651032165556 -2.1705599172123981e-05 -4.5155886443045368e-05 0.00019560955700899802 -2.304720667446857e-05 -4.2016990744399619e-05 0.00017010049057558226 -7.4293927138752967e-15 -2.6549367714629419e-05 0.00026325184996076566 3.6376862518101053e-15 -3.104987733875556e-05 0.00012420345630267962 -3.1049884983801465e-05 -2.1705619874260706e-05 0.00019572651032165556 -2.1705599172123981e-05 -4.5155886443045368e-05 0.00019560955700899802 -2.304720667446857e-05 -4.2016990744399619e-05 0.00017010049057558226 -7.4293927138752967e-15 -3.104987733875556e-05 0.00012420345630267962 -3.1049884983801465e-05 -4.5155886443045368e-05 0.00019560955700899802 -2.304720667446857e-05 -4.2016990744399619e-05 0.00017010049057558226 -7.4293927138752967e-15 -5.2368230747523415e-05 9.1223581686625602e-05 -2.2804962074949665e-05 -4.5155886443045368e-05 0.00019560955700899802 -2.304720667446857e-05 -4.2016990744399619e-05 0.00017010049057558226 -7.4293927138752967e-15 -6.6322404754722177e-05 9.9377289419767348e-05 -2.2369140876306712e-15 -7.0597473624897279e-05 0.00021335744945390171 -1.7282216673799083e-16 -4.5155886443045368e-05 0.00019560955700899802 -2.304720667446857e-05 -4.2016990744399619e-05 0.00017010049057558226 -7.4293927138752967e-15 -5.2368230747523415e-05 9.1223581686625602e-05 -2.2804962074949665e-05 -6.6322404754722177e-05 9.9377289419767348e-05 -2.2369140876306712e-15 -4.5155886443045368e-05 0.00019560955700899802 -2.304720667446857e-05 -6.5879438208534181e-05 0.00024100509537617728 -2.7888219802429965e-05 -7.0597473624897279e-05 0.00021335744945390171 -1.7282216673799083e-16 -5.2997874689062202e-05 0.00028671835067717218 3.5672734690883918e-15 -4.5155886443045368e-05 0.00019560955700899802 -2.304720667446857e-05 -4.2016990744399619e-05 0.00017010049057558226 -7.4293927138752967e-15 -7.0597473624897279e-05 0.00021335744945390171 -1.7282216673799083e-16 -5.2997874689062202e-05 0.00028671835067717218 3.5672734690883918e-15 -2.6380160791592699e-05 0.00023688191761807249 -6.2437346145086957e-05 -4.980966998490404e-05 0.00019924282211797046 -4.9809627528962696e-05 -4.3547753587358743e-05 0.00029164714376816834 -5.4967761504621863e-05 -3.1091997751223185e-05 0.00026707277388639153 -3.1091976926887284e-05 -4.980966998490404e-05 0.00019924282211797046 -4.9809627528962696e-05 -5.3433810648732123e-05 9.0297042812810229e-05 -5.4063365043721956e-05 -5.2368230747523415e-05 9.1223581686625602e-05 -2.2804962074949665e-05 -7.2645814448192949e-05 0.00012909174756856067 -3.2271727849598636e-05 -3.104987733875556e-05 0.00012420345630267962 -3.1049884983801465e-05 -4.980966998490404e-05 0.00019924282211797046 -4.9809627528962696e-05 -5.3433810648732123e-05 9.0297042812810229e-05 -5.4063365043721956e-05 -5.2368230747523415e-05 9.1223581686625602e-05 -2.2804962074949665e-05 -3.104987733875556e-05 0.00012420345630267962 -3.1049884983801465e-05 -4.5155886443045368e-05 0.00019560955700899802 -2.304720667446857e-05 -4.980966998490404e-05 0.00019924282211797046 -4.9809627528962696e-05 -3.1091997751223185e-05 0.00026707277388639153 -3.1091976926887284e-05 -4.980966998490404e-05 0.00019924282211797046 -4.9809627528962696e-05 -5.3433810648732123e-05 9.0297042812810229e-05 -5.4063365043721956e-05 -7.5930340083279205e-05 0.00013406816877263006 -6.6196679162630582e-05 -6.4531513055851312e-05 0.00022485636729200934 -7.641598088044198e-05 -3.104987733875556e-05 0.00012420345630267962 -3.1049884983801465e-05 -2.6380160791592699e-05 0.00023688191761807249 -6.2437346145086957e-05 -4.980966998490404e-05 0.00019924282211797046 -4.9809627528962696e-05 -3.1091997751223185e-05 0.00026707277388639153 -3.1091976926887284e-05 -4.980966998490404e-05 0.00019924282211797046 -4.9809627528962696e-05 -6.5879438208534181e-05 0.00024100509537617728 -2.7888219802429965e-05 -4.3547753587358743e-05 0.00029164714376816834 -5.4967761504621863e-05 -3.1091997751223185e-05 0.00026707277388639153 -3.1091976926887284e-05 -3.104987733875556e-05 0.00012420345630267962 -3.1049884983801465e-05 -2.3563318598110043e-05 9.4725924663485657e-05 -5.4806887141295277e-05 -2.6380160791592699e-05 0.00023688191761807249 -6.2437346145086957e-05 -4.980966998490404e-05 0.00019924282211797046 -4.9809627528962696e-05 -4.5155886443045368e-05 0.00019560955700899802 -2.304720667446857e-05 -4.980966998490404e-05 0.00019924282211797046 -4.9809627528962696e-05 -6.5879438208534181e-05 0.00024100509537617728 -2.7888219802429965e-05 -7.2645814448192949e-05 0.00012909174756856067 -3.2271727849598636e-05 -2.3563318598110043e-05 9.4725924663485657e-05 -5.4806887141295277e-05 -2.6380160791592699e-05 0.00023688191761807249 -6.2437346145086957e-05 -4.980966998490404e-05 0.00019924282211797046 -4.9809627528962696e-05 -3.3106075279596004e-05 0.00013372030989311796 -7.6912207566067481e-05 -2.6380160791592699e-05 0.00023688191761807249 -6.2437346145086957e-05 -4.980966998490404e-05 0.00019924282211797046 -4.9809627528962696e-05 -6.4531513055851312e-05 0.00022485636729200934 -7.641598088044198e-05 -4.3547753587358743e-05 0.00029164714376816834 -5.4967761504621863e-05 -4.5155886443045368e-05 0.00019560955700899802 -2.304720667446857e-05 -4.980966998490404e-05 0.00019924282211797046 -4.9809627528962696e-05 -6.5879438208534181e-05 0.00024100509537617728 -2.7888219802429965e-05 -3.1091997751223185e-05 0.00026707277388639153 -3.1091976926887284e-05 -2.3563318598110043e-05 9.4725924663485657e-05 -5.4806887141295277e-05 -4.980966998490404e-05 0.00019924282211797046 -4.9809627528962696e-05 -5.3433810648732123e-05 9.0297042812810229e-05 -5.4063365043721956e-05 -3.3106075279596004e-05 0.00013372030989311796 -7.6912207566067481e-05 -3.104987733875556e-05 0.00012420345630267962 -3.1049884983801465e-05 -2.3563318598110043e-05 9.4725924663485657e-05 -5.4806887141295277e-05 -4.980966998490