<?xml version="1.0"?>
<VTKFile type="UnstructuredGrid" version="0.1" byte_order="LittleEndian">
<UnstructuredGrid>
<Piece NumberOfPoints="23284" NumberOfCells="5821">
<Points>
<DataArray type="Float64" NumberOfComponents="3" format="ascii">
0.0038256098144006869 0.0041400759042262009 0.0039854622984236152 0.0050000000000000001 0.0050000000000000001 0 0.007850875913509971 0.005381679503114206 0.0037846524567980611 0.01459658547112015 0.02963818693411439 0.01348159639352434 0 0 0.0050000000000000001 0 0.0050000000000000001 0.0050000000000000001 0.0025000000000000001 0.0025000000000000001 0.067187500000176273 0 0 0.12937500000035251 0.0025000000000000001 0.0025000000000000001 0.035993247487525602 0.01335482532982827 0.061921935510367468 0.031596396334779613 0.053495808280144469 0.082973914578683722 0.047312437411078337 0 0.0736402080526046 0.073773792303481078 0.056489871231288402 0.0025000000000000001 0.0025000000000000001 0.045799116620837459 0.028040759187074001 0.036821396352863953 0.0025000000000000001 0.0025000000000000001 0.035993247487525602 0.0025000000000000001 0.0025000000000000001 0.067187500000176273 0 0.0050000000000000001 0.0050000000000000001 0.0095042730786282278 0.0082759167994670979 0.0082480707199308924 0.0045817963841059857 0.0043364158334714669 0.009473343555270677 0.01335482532982827 0.061921935510367468 0.031596396334779613 0.045799116620837459 0.028040759187074001 0.036821396352863953 0.0025000000000000001 0.0025000000000000001 0.035993247487525602 0.053495808280144469 0.082973914578683722 0.047312437411078337 0.0025000000000000001 0.0025000000000000001 0.067187500000176273 0.056489871231288402 0.0025000000000000001 0.0025000000000000001 0.045799116620837459 0.028040759187074001 0.036821396352863953 0.073626545880309466 0 0.073777028331958816 0.0025000000000000001 0.0025000000000000001 0.067187500000176273 0.045799116620837459 0.028040759187074001 0.036821396352863953 0.053495808280144469 0.082973914578683722 0.047312437411078337 0.073626545880309466 0 0.073777028331958816 0.0025000000000000001 0.0025000000000000001 0.067187500000176273 0.056489871231288402 0.0025000000000000001 0.0025000000000000001 0.045799116620837459 0.028040759187074001 0.036821396352863953 0.073580292400886219 0.073580292401008413 0 0.073626545880309466 0 0.073777028331958816 0.045799116620837459 0.028040759187074001 0.036821396352863953 0.053495808280144469 0.082973914578683722 0.047312437411078337 0.073580292400886219 0.073580292401008413 0 0.073626545880309466 0 0.073777028331958816 0 0 0 0 0.0025000000000000001 0.0025000000000000001 0.0025000000000000001 0.0025000000000000001 0 0.0025000000000000001 0 0.0025000000000000001 0 0 0.0050000000000000001 0 0.0050000000000000001 0.0050000000000000001 0.0025000000000000001 0.0025000000000000001 0.035993247487525602 0.0025000000000000001 0.0025000000000000001 0.067187500000176273 0.010477667344183201 0.01284643002126089 0.00012275481760709659 0.007850875913509971 0.005381679503114206 0.0037846524567980611 0.0095042730786282278 0.0082759167994670979 0.0082480707199308924 0.01459658547112015 0.02963818693411439 0.01348159639352434 0.0050000000000000001 0.0050000000000000001 0 0.010477667344183201 0.01284643002126089 0.00012275481760709659 0.007850875913509971 0.005381679503114206 0.0037846524567980611 0.01459658547112015 0.02963818693411439 0.01348159639352434 0.0038256098144006869 0.0041400759042262009 0.0039854622984236152 0.007850875913509971 0.005381679503114206 0.0037846524567980611 0.0095042730786282278 0.0082759167994670979 0.0082480707199308924 0.01459658547112015 0.02963818693411439 0.01348159639352434 0 0 0 0 0.0025000000000000001 0.0025000000000000001 0.0025000000000000001 0.0025000000000000001 0 0 0.0050000000000000001 0 0.010477667344183201 0.01284643002126089 0.00012275481760709659 0.0095042730786282278 0.0082759167994670979 0.0082480707199308924 0.01459658547112015 0.02963818693411439 0.01348159639352434 0.034373062133854368 0.040091712813656893 0.017906843810535381 0.0050000000000000001 0 0.0050000000000000001 0 0 0.0050000000000000001 0.0025000000000000001 0.0025000000000000001 0.067187500000176273 0 0 0.12937500000035251 0.0095042730786282278 0.0082759167994670979 0.0082480707199308924 0.0025000000000000001 0.0025000000000000001 0.02029496691504501 0.045799116620837459 0.028040759187074001 0.036821396352863953 0.034373062133854368 0.040091712813656893 0.017906843810535381 0.0050000000000000001 0 0.0050000000000000001 0.0045817963841059857 0.0043364158334714669 0.009473343555270677 0.0025000000000000001 0.0025000000000000001 0.02029496691504501 0.056489871231288402 0.0025000000000000001 0.0025000000000000001 0.0050000000000000001 0 0.0050000000000000001 0.0045817963841059857 0.0043364158334714669 0.009473343555270677 0.028851790063782669 0.0025000000000000001 0.0025000000000000001 0.056489871231288402 0.0025000000000000001 0.0025000000000000001 0.0095042730786282278 0.0082759167994670979 0.0082480707199308924 0.0045817963841059857 0.0043364158334714669 0.009473343555270677 0.0025000000000000001 0.0025000000000000001 0.02029496691504501 0.056489871231288402 0.0025000000000000001 0.0025000000000000001 0.0095042730786282278 0.0082759167994670979 0.0082480707199308924 0.0045817963841059857 0.0043364158334714669 0.009473343555270677 0.028851790063782669 0.0025000000000000001 0.0025000000000000001 0.056489871231288402 0.0025000000000000001 0.0025000000000000001 0.0095042730786282278 0.0082759167994670979 0.0082480707199308924 0.0025000000000000001 0.0025000000000000001 0.02029496691504501 0.056489871231288402 0.0025000000000000001 0.0025000000000000001 0.045799116620837459 0.028040759187074001 0.036821396352863953 0 0.0050000000000000001 0.0050000000000000001 0 0.0050000000000000001 0 0.016153278899017791 0.044583689206717327 0.01563807923371947 0.0025000000000000001 0.056489871231288402 0.0025000000000000001 0.056489871231288402 0.0025000000000000001 0.0025000000000000001 0.045799116620837459 0.028040759187074001 0.036821396352863953 0.034373062133854368 0.040091712813656893 0.017906843810535381 0.073580292400886219 0.073580292401008413 0 0.028851790063782669 0.0025000000000000001 0.0025000000000000001 0.056489871231288402 0.0025000000000000001 0.0025000000000000001 0.034373062133854368 0.040091712813656893 0.017906843810535381 0.073580292400886219 0.073580292401008413 0 0.0050000000000000001 0 0 0.0050000000000000001 0 0.0050000000000000001 0.056489871231288402 0.0025000000000000001 0.0025000000000000001 0.128749999999761 0 0 0.0095042730786282278 0.0082759167994670979 0.0082480707199308924 0.0045817963841059857 0.0043364158334714669 0.009473343555270677 0.0025000000000000001 0.0025000000000000001 0.02029496691504501 0.01335482532982827 0.061921935510367468 0.031596396334779613 0 0.0050000000000000001 0.0050000000000000001 0.0025000000000000001 0.0025000000000000001 0.02029496691504501 0.0025000000000000001 0.0025000000000000001 0.035993247487525602 0.01335482532982827 0.061921935510367468 0.031596396334779613 0 0.0050000000000000001 0.0050000000000000001 0.0038256098144006869 0.0041400759042262009 0.0039854622984236152 0 0.0050000000000000001 0 0.01459658547112015 0.02963818693411439 0.01348159639352434 0.0050000000000000001 0 0 0.0050000000000000001 0.0050000000000000001 0 0.013289992014046129 0.0065291354129584592 0.0037710740372293499 0.007850875913509971 0.005381679503114206 0.0037846524567980611 0.0050000000000000001 0 0 0.0050000000000000001 0.0050000000000000001 0 0.056489871231288402 0.0025000000000000001 0.0025000000000000001 0.128749999999761 0 0 0.0025000000000000001 0.0025000000000000001 0.035993247487525602 0.053495808280144469 0.082973914578683722 0.047312437411078337 0 0.0736402080526046 0.073773792303481078 0.0025000000000000001 0.0025000000000000001 0.067187500000176273 0.0050000000000000001 0 0 0.0050000000000000001 0.0050000000000000001 0 0.013289992014046129 0.0065291354129584592 0.0037710740372293499 0.028851790063782669 0.0025000000000000001 0.0025000000000000001 0.0050000000000000001 0.0050000000000000001 0 0.010477667344183201 0.01284643002126089 0.00012275481760709659 0.013289992014046129 0.0065291354129584592 0.0037710740372293499 0.028851790063782669 0.0025000000000000001 0.0025000000000000001 0.0050000000000000001 0 0 0.0050000000000000001 0.0050000000000000001 0 0.028851790063782669 0.0025000000000000001 0.0025000000000000001 0.056489871231288402 0.0025000000000000001 0.0025000000000000001 0.0050000000000000001 0.0050000000000000001 0 0 0.0050000000000000001 0 0.0025000000000000001 0.056489871231288402 0.0025000000000000001 0 0.12875000000032791 0 0.0050000000000000001 0.0050000000000000001 0 0.010477667344183201 0.01284643002126089 0.00012275481760709659 0.0025000000000000001 0.056489871231288402 0.0025000000000000001 0 0.12875000000032791 0 0.0050000000000000001 0.0050000000000000001 0 0 0.0050000000000000001 0 0.01459658547112015 0.02963818693411439 0.01348159639352434 0.016153278899017791 0.044583689206717327 0.01563807923371947 0.0050000000000000001 0.0050000000000000001 0 0.010477667344183201 0.01284643002126089 0.00012275481760709659 0.01459658547112015 0.02963818693411439 0.01348159639352434 0.016153278899017791 0.044583689206717327 0.01563807923371947 0.0050000000000000001 0.0050000000000000001 0 0 0.0050000000000000001 0 0.016153278899017791 0.044583689206717327 0.01563807923371947 0.0025000000000000001 0.056489871231288402 0.0025000000000000001 0.0050000000000000001 0.0050000000000000001 0 0.010477667344183201 0.01284643002126089 0.00012275481760709659 0.016153278899017791 0.044583689206717327 0.01563807923371947 0.0025000000000000001 0.056489871231288402 0.0025000000000000001 0.0050000000000000001 0 0.0050000000000000001 0.056489871231288402 0.0025000000000000001 0.0025000000000000001 0.073626545880309466 0 0.073777028331958816 0.0025000000000000001 0.0025000000000000001 0.067187500000176273 0.0025000000000000001 0.0025000000000000001 0.02029496691504501 0.045799116620837459 0.028040759187074001 0.036821396352863953 0
[...]
<PointData Scalars="" Vectors="displacement," Tensors="">
<DataArray type="Float64" Name="displacement" NumberOfComponents="3" format="ascii">
11364264.385614207 14837429.170914821 24528204.507010236 11341853.293705983 14825481.005540887 24519022.314400498 11365581.361977851 14828730.996626696 24500820.981785662 11473897.162882295 14838199.253106557 24401785.00415187 11361964.766151749 14847669.750743564 24561323.7873541 11372171.655805558 14847669.806590974 24549341.018414915 11744154.75926492 14991602.161219859 24540174.231470566 12116137.886398468 15145741.711512614 24561325.963853531 11555002.044364747 14916843.364662375 24540173.731477104 11649642.897858556 14884147.026518656 24331944.451754015 11787915.158466775 14839868.566211421 24038089.408094835 11929315.223728037 15012490.029712945 24384840.631447513 11351909.052883334 14726361.375715941 24212795.671179544 11612161.736477243 14830438.09086749 24216411.368674733 11555002.044364747 14916843.364662375 24540173.731477104 11744154.75926492 14991602.161219859 24540174.231470566 11372171.655805558 14847669.806590974 24549341.018414915 11398554.371002132 14836052.346872985 24483859.1656509 11397942.034515671 14849037.354359047 24523148.830804005 11649642.897858556 14884147.026518656 24331944.451754015 11612161.736477243 14830438.09086749 24216411.368674733 11555002.044364747 14916843.364662375 24540173.731477104 11787915.158466775 14839868.566211421 24038089.408094835 11744154.75926492 14991602.161219859 24540174.231470566 11351909.052883334 14726361.375715941 24212795.671179544 11612161.736477243 14830438.09086749 24216411.368674733 11779008.042722655 14862198.857418694 24114876.844272897 11744154.75926492 14991602.161219859 24540174.231470566 11612161.736477243 14830438.09086749 24216411.368674733 11787915.158466775 14839868.566211421 24038089.408094835 11779008.042722655 14862198.857418694 24114876.844272897 11744154.75926492 14991602.161219859 24540174.231470566 11351909.052883334 14726361.375715941 24212795.671179544 11612161.736477243 14830438.09086749 24216411.368674733 11481851.067832489 14685480.703989096 23938816.094700359 11779008.042722655 14862198.857418694 24114876.844272897 11612161.736477243 14830438.09086749 24216411.368674733 11787915.158466775 14839868.566211421 24038089.408094835 11481851.067832489 14685480.703989096 23938816.094700359 11779008.042722655 14862198.857418694 24114876.844272897 11331646.471594237 14835687.183998836 24561323.718045142 11351908.869859174 14841678.459777432 24555332.462972376 11336749.763234319 14830584.015735149 24540173.375261884 11346805.68853756 14836575.160064034 24546164.469660435 11361964.766151749 14847669.750743564 24561323.7873541 11372171.655805558 14847669.806590974 24549341.018414915 11555002.044364747 14916843.364662375 24540173.731477104 11744154.75926492 14991602.161219859 24540174.231470566 11358615.09832654 14814593.015190674 24467003.001453031 11365581.361977851 14828730.996626696 24500820.981785662 11398554.371002132 14836052.346872985 24483859.1656509 11473897.162882295 14838199.253106557 24401785.00415187 11341853.293705983 14825481.005540887 24519022.314400498 11358615.09832654 14814593.015190674 24467003.001453031 11365581.361977851 14828730.996626696 24500820.981785662 11473897.162882295 14838199.253106557 24401785.00415187 11364264.385614207 14837429.170914821 24528204.507010236 11365581.361977851 14828730.996626696 24500820.981785662 11398554.371002132 14836052.346872985 24483859.1656509 11473897.162882295 14838199.253106557 24401785.00415187 11331646.471594237 14835687.183998836 24561323.718045142 11351908.869859174 14841678.459777432 24555332.462972376 11336749.763234319 14830584.015735149 24540173.375261884 11341853.263113348 14835687.534644768 24549340.872204546 11358615.09832654 14814593.015190674 24467003.001453031 11398554.371002132 14836052.346872985 24483859.1656509 11473897.162882295 14838199.253106557 24401785.00415187 11522069.977319937 14808433.097094815 24256814.263316792 11361964.86242906 14837462.991808984 24531005.224165458 11361964.766151749 14847669.750743564 24561323.7873541 11744154.75926492 14991602.161219859 24540174.231470566 12116137.886398468 15145741.711512614 24561325.963853531 11398554.371002132 14836052.346872985 24483859.1656509 11459812.339900058 14879221.580968596 24540173.427106287 11612161.736477243 14830438.09086749 24216411.368674733 11522069.977319937 14808433.097094815 24256814.263316792 11361964.86242906 14837462.991808984 24531005.224165458 11397942.034515671 14849037.354359047 24523148.830804005 11459812.339900058 14879221.580968596 24540173.427106287 11351909.052883334 14726361.375715941 24212795.671179544 11361964.86242906 14837462.991808984 24531005.224165458 11397942.034515671 14849037.354359047 24523148.830804005 11351909.085629249 14782781.493316194 24380384.210549425 11351909.052883334 14726361.375715941 24212795.671179544 11398554.371002132 14836052.346872985 24483859.1656509 11397942.034515671 14849037.354359047 24523148.830804005 11459812.339900058 14879221.580968596 24540173.427106287 11351909.052883334 14726361.375715941 24212795.671179544 11398554.371002132 14836052.346872985 24483859.1656509 11397942.034515671 14849037.354359047 24523148.830804005 11351909.085629249 14782781.493316194 24380384.210549425 11351909.052883334 14726361.375715941 24212795.671179544 11398554.371002132 14836052.346872985 24483859.1656509 11459812.339900058 14879221.580968596 24540173.427106287 11351909.052883334 14726361.375715941 24212795.671179544 11612161.736477243 14830438.09086749 24216411.368674733 11372171.655805558 14847669.806590974 24549341.018414915 11341853.263113348 14835687.534644768 24549340.872204546 11517482.633923369 14840189.308082722 24356527.825348742 11462122.295884781 14836574.654017506 24410782.666361157 11351909.052883334 14726361.375715941 24212795.671179544 11612161.736477243 14830438.09086749 24216411.368674733 11522069.977319937 14808433.097094815 24256814.263316792 11481851.067832489 14685480.703989096 23938816.094700359 11351909.085629249 14782781.493316194 24380384.210549425 11351909.052883334 14726361.375715941 24212795.671179544 11522069.977319937 14808433.097094815 24256814.263316792 11481851.067832489 14685480.703989096 23938816.094700359 11331646.441517875 14825481.002371721 24531005.132260531 11361964.86242906 14837462.991808984 24531005.224165458 11351909.052883334 14726361.375715941 24212795.671179544 11331646.362070844 14572859.320916392 23780624.774096202 11398554.371002132 14836052.346872985 24483859.1656509 11397942.034515671 14849037.354359047 24523148.830804005 11459812.339900058 14879221.580968596 24540173.427106287 11649642.897858556 14884147.026518656 24331944.451754015 11372171.655805558 14847669.806590974 24549341.018414915 11459812.339900058 14879221.580968596 24540173.427106287 11555002.044364747 14916843.364662375 24540173.731477104 11649642.897858556 14884147.026518656 24331944.451754015 11372171.655805558 14847669.806590974 24549341.018414915 11364264.385614207 14837429.170914821 24528204.507010236 11341853.263113348 14835687.534644768 24549340.872204546 11473897.162882295 14838199.253106557 24401785.00415187 11331646.441517875 14825481.002371721 24531005.132260531 11341853.293705983 14825481.005540887 24519022.314400498 11367841.428050982 14817595.162931301 24465089.930413079 11365581.361977851 14828730.996626696 24500820.981785662 11331646.441517875 14825481.002371721 24531005.132260531 11341853.293705983 14825481.005540887 24519022.314400498 11351909.052883334 14726361.375715941 24212795.671179544 11331646.362070844 14572859.320916392 23780624.774096202 11555002.044364747 14916843.364662375 24540173.731477104 11787915.158466775 14839868.566211421 24038089.408094835 11929315.223728037 15012490.029712945 24384840.631447513 11744154.75926492 14991602.161219859 24540174.231470566 11331646.441517875 14825481.002371721 24531005.132260531 11341853.293705983 14825481.005540887 24519022.314400498 11367841.428050982 14817595.162931301 24465089.930413079 11351909.085629249 14782781.493316194 24380384.210549425 11341853.293705983 14825481.005540887 24519022.314400498 11358615.09832654 14814593.015190674 24467003.001453031 11367841.428050982 14817595.162931301 24465089.930413079 11351909.085629249 14782781.493316194 24380384.210549425 11331646.441517875 14825481.002371721 24531005.132260531 11341853.293705983 14825481.005540887 24519022.314400498 11351909.085629249 14782781.493316194 24380384.210549425 11351909.052883334 14726361.375715941 24212795.671179544 11341853.293705983 14825481.005540887 24519022.314400498 11341853.263113348 14835687.534644768 24549340.872204546 11462122.295884781 14836574.654017506 24410782.666361157 11594472.727944449 14835685.419919711 24252765.568350658 11341853.293705983 14825481.005540887 24519022.314400498 11358615.09832654 14814593.015190674 24467003.001453031 11462122.295884781 14836574.654017506 24410782.666361157 11594472.727944449 14835685.419919711 24252765.568350658 11341853.293705983 14825481.005540887 24519022.314400498 11341853.263113348 14835687.534644768 24549340.872204546 11473897.162882295 14838199.253106557 24401785.00415187 11517482.633923369 14840189.308082722 24356527.825348742 11341853.293705983 14825481.005540887 24519022.314400498 11358615.09832654 14814593.015190674 24467003.001453031 11473897.162882295 14838199.253106557 24401785.00415187 11517482.633923369 14840189.308082722 24356527.825348742 11341853.293705983 14825481.005540887 24519022.314400498 11341853.263113348 14835687.534644768 24549340.872204546 11517482.633923369 14840189.308082722 24356527.825348742 11462122.295884781 14836574.654017506 24410782.666361157 11341853.293705983 14825481.005540887 24519022.314400498 11358615.09832654 14814593.015190674 24467003.001453031 11517482.633923369 14840189.308082722 24356527.825348742 11462122.295884781 14836574.654017506 24410782.666361157 11361964.86242906 14837462.991808984 24531005.224165458 11351909.052883334 14726361.375715941 24212795.671179544 11779008.042722655 14862198.857418694 24114876.844272897 11744154.75926492 14991602.161219859 24540174.231470566 11459812.339900058 14879221.580968596 24540173.427106287 11612161.736477243 14830438.09086749 24216411.368674733 11555002.044364747 14916843.364662375 24540173.731477104 11522069.977319937 14808433.097094815 24256814.263316792 11361964.86242906 14837462.991808984 24531005.224165458 11351909.052883334 14726361.375715941 24212795.671179544 11555002.044364747 14916843.364662375 24540173.731477104 11744154.75926492 14991602.161219859 24540174.231470566 11372171.655805558 14847669.806590974 24549341.018414915 11398554.371002132 14836052.346872985 24483859.1656509 11473897.162882295 14838199.253106557 24401785.00415187 11649642.897858556 14884147.026518656 24331944.451754015 11372171.655805558 14847669.806590974 24549341.018414915 11555002.044364747 14916843.364662375 24540173.731477104 11929315.223728037 15012490.029712945 24384840.631447513 11744154.75926492 14991602.161219859 24540174.231470566 11372171.655805558 14847669.806590974 24549341.018414915 11555002.044364747 14916843.364662375 24540173.731477104 11649642.897858556 14884147.026518656 24331944.451754015 11929315.223728037 15012490.029712945 24384840.631447513 11372171.655805558 14847669.806590974 24549341.018414915 11397942.034515671 14849037.354359047 24523148.830804005 11459812.339900058 14879221.580968596 24540173.427106287 11649642.897858556 14884147.026518656 24331944.451754015 11364264.385614207 14837429.170914821 24528204.507010236 11341853.293705983 14825481.005540887 24519022.314400498 11341853.263113348 14835687.534644768 24549340.872204546 11473897.162882295 14838199.253106557 24401785.00415187 11367841.428050982 14817595.162931301 24465089.930413079 11398554.371002132 14836052.346872985 24483859.1656509 11351909.085629249 14782781.493316194 24380384.210549425 11522069.977319937 14808433.097094815 24256814.263316792 11612161.736477243 14830438.09086749 24216411.368674733 11555002.044364747 14916843.364662375 24540173.731477104 11522069.977319937 14808433.097094815 24256814.263316792 11787915.158466775 14839868.566211421 24038089.408094835 11331646.471594237 14835687.183998836 24561323.718045142 11336749.763234319 14830584.015735149 24540173.375261884 11346805.68853756 14836575.160064034 24546164.469660435 11331646.441517875 14825481.002371721 24531005.132260531 11555002.044364747 14916843.364662375 24540173.731477104 11649642.897858556 14884147.026518656 24331944.451754015 11522069.977319937 14808433.097094815 24256814.263316792 11787915.158466775 14839868.566211421 24038089.408094835 11331646.471594237 14835687.183998836 24561323.718045142 11351908.869859174 14841678.459777432 24555332.462972376 11346805.68853756 14836575.160064034 24546164.469660435 11361964.766151749 14847669.750743564 24561323.7873541 11341853.293705983 14825481.005540887 24519022.314400498 11358615.09832654 14814593.015190674 24467003.001453031 11351909.085629249 14782781.493316194 24380384.210549425 11481851.067832489 14685480.703989096 23938816.094700359 11341853.293705983 14825481.005540887 24519022.314400498 11351909.085629249 14782781.493316194 24380384.210549425 11351909.052883334 14726361.375715941 24212795.671179544 11481851.067832489 14685480.703989096 23938816.094700359 11459812.339900058 14879221.580968596 24540173.427106287 11555002.044364747 14916843.364662375 24540173.731477104 11649642.897858556 14884147.026518656 24331944.451754015 11522069.977319937 14808433.097094815 24256814.263316792 11331646.441517875 14825481.002371721 24531005.132260531 11361964.86242906 14837462.991808984 24531005.224165458 11367841.428050982 14817595.162931301 24465089.930413079 11365581.361977851 14828730.996626696 24500820.981785662 11358615.09832654 14814593.015190674 24467003.001453031 11351909.085629249 14782781.493316194 24380384.210549425 11462122.295884781 14836574.654017506 24410782.666361157 11481851.067832489 14685480.703989096 23938816.094700359 11351909.085629249 14782781.493316194 24380384.210549425 11522069.977319937 14808433.097094815 24256814.263316792 11462122.295884781 14836574.654017506 24410782.666361157 11481851.067832489 14685480.703989096 23938816.094700359 11331646.441517875 14825481.002371721 24531005.132260531 11361964.86242906 14837462.991808984 24531005.224165458 11367841.428050982 14817595.162931301 24465089.930413079 11351909.085629249 14782781.493316194 24380384.210549425 11351908.869859174 14841678.459777432 24555332.462972376 11336749.763234319 14830584.015735149 24540173.375261884 11364264.385614207 14837429.170914821 24528204.507010236 11341853.263113348 14835687.534644768 24549340.872204546 11336749.763234319 14830584.015735149 24540173.375261884 11346805.68853756 14836575.160064034 24546164.469660435 11331646.441517875 14825481.002371721 24531005.132260531 11364264.385614207 14837429.170914821 24528204.507010236 11361964.86242906 14837462.991808984 24531005.224165458 11367841.428050982 14817595.162931301 24465089.930413079 11365581.361977851 14828730.996626696 24500820.981785662 11397942.034515671 14849037.354359047 24523148.830804005 11367841.428050982 14817595.162931301 24465089.930413079 11398554.371002132 14836052.346872985 24483859.1656509 11397942.034515671 14849037.354359047 24523148.830804005 11351909.085629249 14782781.493316194 24380384.210549425 11341853.293705983 14825481.005540887 24519022.314400498 11358615.09832654 14814593.015190674 24467003.001453031 11481851.067832489 14685480.703989096 23938816.094700359 11594472.727944449 14835685.419919711 24252765.568350658 11361964.86242906 14837462.991808984 24531005.224165458 11367841.428050982 14817595.162931301 24465089.930413079 11397942.034515671 14849037.354359047 24523148.830804005 11351909.085629249 14782781.493316194 24380384.210549425 11372171.655805558 14847669.806590974 24549341.018414915 11341853.263113348 14835687.534644768 24549340.872204546 11473897.162882295 14838199.253106557 24401785.00415187 11517482.633923369 14840189.308082722 24356527.825348742 11358615.09832654 14814593.015190674 24467003.001453031 11367841.428050982 14817595.162931301 24465089.930413079 11398554.371002132 14836052.346872985 24483859.1656509 11522069.977319937 14808433.097094815 24256814.263316792 11351908.869859174 14841678.459777432 24555332.462972376 11346805.68853756 14836575.160064034 24546164.469660435 11361964.766151749 14847669.750743564 24561323.7873541 11364264.385614207 14837429.170914821 24528204.507010236 11331646.441517875 14825481.002371721 24531005.132260531 11361964.86242906 14837462.991808984 24531005.224165458 11351909.085629249 14782781.493316194 24380384.210549425 11351909.052883334 14726361.375715941 24212795.671179544 11361964.86242906 14837462.991808984 24531005.224165458 11459812.339900058 14879221.580968596 24540173.427106287 11351909.052883334 14726361.375715941 24212795.671179544 11555002.044364747 14916843.364662375 24540173.731477104 11372171.655805558 14847669.806590974 24549341.018414915 11341853.263113348 14835687.534644768 24549340.872204546 11462122.295884781 14836574.654017506 24410782.666361157 11594472.727944449 14835685.419919711 24252765.568350658 11398554.371002132 14836052.346872985 24483859.1656509 11459812.339900058 14879221.580968596 24540173.427106287 11649642.897858556 14884147.026518656 24331944.451754015 11522069.977319937 14808433.097094815 24256814.263316792 11459812.339900058 14879221.580968596 24540173.427106287 11351909.052883334 14726361.375715941 24212795.671179544 11612161.736477243 14830438.09086749 24216411.368674733 11555002.044364747 14916843.364662375 24540173.731477104 11358615.09832654 14814593.015190674 24467003.001453031 11351909.085629249 14782781.493316194 24380384.210549425 11522069.977319937 14808433.097094815 24256814.263316792 11462122.295884781 14836574.654017506 24410782.666361157 11372171.655805558 14847669.806590974 24549341.018414915 11364264.385614207 14837429.170914821 24528204.507010236 11398554.371002132 14836052.346872985 24483859.1656509 11473897.162882295 14838199.253106557 24401785.00415187 11358615.09832654 14814593.015190674 24467003.001453031 11367841.428050982 14817595.162931301 24465089.930413079 11351909.085629249 14782781.493316194 24380384.210549425 11522069.977319937 14808433.097094815 24256814.263316792 11372171.655805558 14847669.806590974 24549341.018414915 11364264.385614207 14837429.170914821 24528204.507010236 11398554.371002132 14836052.346872985 24483859.1656509 11397942.034515671 14849037.354359047 24523148.830804005 11361964.86242906 14837462.991808984 24531005.224165458 11361964.766151749 14847669.750743564 24561323.7873541 11555002.044364747 14916843.364662375 24540173.731477104 11744154.75926492 14991602.161219859 24540174.231470566 11351908.869859174 14841678.459777432 24555332.462972376 11336749.763234319 14830584.015735149 24540173.375261884 11346805.68853756 14836575.160064034 24546164.469660435 11364264.385614207 14837429.170914821 24528204.507010236 11331646.441517875 14825481.002371721 24531005.132260531 11364264.385614207 14837429.170914821 24528204.507010236 11341853.293705983 14825481.005540887 24519022.314400498 11365581.361977851 14828730.996626696 24500820.981785662 11346805.68853756 14836575.160064034 24546164.469660435 11331646.441517875 14825481.002371721 24531005.132260531 11361964.86242906 14837462.991808984 24531005.224165458 11364264.385614207 14837429.170914821 24528204.507010236 11331646.441517875 14825481.002371721 24531005.132260531 11361964.86242906 14837462.991808984 24531005.224165458 11364264.385614207 14837429.170914821 24528204.507010236 11365581.361977851 14828730.996626696 24500820.981785662 11336749.763234319 14830584.015735149 24540173.375261884 11331646.441517875 14825481.002371721 24531005.132260531 11364264.385614207 14837429.170914821 24528204.507010236 11341853.293705983 14825481.005540887 24519022.314400498 11361964.86242906 14837462.991808984 24531005.224165458 11364264.385614207 14837429.170914821 24528204.507010236 11365581.361977851 1482