<?xml version="1.0"?>
<VTKFile type="UnstructuredGrid" version="0.1" byte_order="LittleEndian">
<UnstructuredGrid>
<Piece NumberOfPoints="23284" NumberOfCells="5821">
<Points>
<DataArray type="Float64" NumberOfComponents="3" format="ascii">
0.0038256098144006869 0.0041400759042262009 0.0039854622984236152 0.0050000000000000001 0.0050000000000000001 0 0.007850875913509971 0.005381679503114206 0.0037846524567980611 0.01459658547112015 0.02963818693411439 0.01348159639352434 0 0 0.0050000000000000001 0 0.0050000000000000001 0.0050000000000000001 0.0025000000000000001 0.0025000000000000001 0.067187500000176273 0 0 0.12937500000035251 0.0025000000000000001 0.0025000000000000001 0.035993247487525602 0.01335482532982827 0.061921935510367468 0.031596396334779613 0.053495808280144469 0.082973914578683722 0.047312437411078337 0 0.0736402080526046 0.073773792303481078 0.056489871231288402 0.0025000000000000001 0.0025000000000000001 0.045799116620837459 0.028040759187074001 0.036821396352863953 0.0025000000000000001 0.0025000000000000001 0.035993247487525602 0.0025000000000000001 0.0025000000000000001 0.067187500000176273 0 0.0050000000000000001 0.0050000000000000001 0.0095042730786282278 0.0082759167994670979 0.0082480707199308924 0.0045817963841059857 0.0043364158334714669 0.009473343555270677 0.01335482532982827 0.061921935510367468 0.031596396334779613 0.045799116620837459 0.028040759187074001 0.036821396352863953 0.0025000000000000001 0.0025000000000000001 0.035993247487525602 0.053495808280144469 0.082973914578683722 0.047312437411078337 0.0025000000000000001 0.0025000000000000001 0.067187500000176273 0.056489871231288402 0.0025000000000000001 0.0025000000000000001 0.045799116620837459 0.028040759187074001 0.036821396352863953 0.073626545880309466 0 0.073777028331958816 0.0025000000000000001 0.0025000000000000001 0.067187500000176273 0.045799116620837459 0.028040759187074001 0.036821396352863953 0.053495808280144469 0.082973914578683722 0.047312437411078337 0.073626545880309466 0 0.073777028331958816 0.0025000000000000001 0.0025000000000000001 0.067187500000176273 0.056489871231288402 0.0025000000000000001 0.0025000000000000001 0.045799116620837459 0.028040759187074001 0.036821396352863953 0.073580292400886219 0.073580292401008413 0 0.073626545880309466 0 0.073777028331958816 0.045799116620837459 0.028040759187074001 0.036821396352863953 0.053495808280144469 0.082973914578683722 0.047312437411078337 0.073580292400886219 0.073580292401008413 0 0.073626545880309466 0 0.073777028331958816 0 0 0 0 0.0025000000000000001 0.0025000000000000001 0.0025000000000000001 0.0025000000000000001 0 0.0025000000000000001 0 0.0025000000000000001 0 0 0.0050000000000000001 0 0.0050000000000000001 0.0050000000000000001 0.0025000000000000001 0.0025000000000000001 0.035993247487525602 0.0025000000000000001 0.0025000000000000001 0.067187500000176273 0.010477667344183201 0.01284643002126089 0.00012275481760709659 0.007850875913509971 0.005381679503114206 0.0037846524567980611 0.0095042730786282278 0.0082759167994670979 0.0082480707199308924 0.01459658547112015 0.02963818693411439 0.01348159639352434 0.0050000000000000001 0.0050000000000000001 0 0.010477667344183201 0.01284643002126089 0.00012275481760709659 0.007850875913509971 0.005381679503114206 0.0037846524567980611 0.01459658547112015 0.02963818693411439 0.01348159639352434 0.0038256098144006869 0.0041400759042262009 0.0039854622984236152 0.007850875913509971 0.005381679503114206 0.0037846524567980611 0.0095042730786282278 0.0082759167994670979 0.0082480707199308924 0.01459658547112015 0.02963818693411439 0.01348159639352434 0 0 0 0 0.0025000000000000001 0.0025000000000000001 0.0025000000000000001 0.0025000000000000001 0 0 0.0050000000000000001 0 0.010477667344183201 0.01284643002126089 0.00012275481760709659 0.0095042730786282278 0.0082759167994670979 0.0082480707199308924 0.01459658547112015 0.02963818693411439 0.01348159639352434 0.034373062133854368 0.040091712813656893 0.017906843810535381 0.0050000000000000001 0 0.0050000000000000001 0 0 0.0050000000000000001 0.0025000000000000001 0.0025000000000000001 0.067187500000176273 0 0 0.12937500000035251 0.0095042730786282278 0.0082759167994670979 0.0082480707199308924 0.0025000000000000001 0.0025000000000000001 0.02029496691504501 0.045799116620837459 0.028040759187074001 0.036821396352863953 0.034373062133854368 0.040091712813656893 0.017906843810535381 0.0050000000000000001 0 0.0050000000000000001 0.0045817963841059857 0.0043364158334714669 0.009473343555270677 0.0025000000000000001 0.0025000000000000001 0.02029496691504501 0.056489871231288402 0.0025000000000000001 0.0025000000000000001 0.0050000000000000001 0 0.0050000000000000001 0.0045817963841059857 0.0043364158334714669 0.009473343555270677 0.028851790063782669 0.0025000000000000001 0.0025000000000000001 0.056489871231288402 0.0025000000000000001 0.0025000000000000001 0.0095042730786282278 0.0082759167994670979 0.0082480707199308924 0.0045817963841059857 0.0043364158334714669 0.009473343555270677 0.0025000000000000001 0.0025000000000000001 0.02029496691504501 0.056489871231288402 0.0025000000000000001 0.0025000000000000001 0.0095042730786282278 0.0082759167994670979 0.0082480707199308924 0.0045817963841059857 0.0043364158334714669 0.009473343555270677 0.028851790063782669 0.0025000000000000001 0.0025000000000000001 0.056489871231288402 0.0025000000000000001 0.0025000000000000001 0.0095042730786282278 0.0082759167994670979 0.0082480707199308924 0.0025000000000000001 0.0025000000000000001 0.02029496691504501 0.056489871231288402 0.0025000000000000001 0.0025000000000000001 0.045799116620837459 0.028040759187074001 0.036821396352863953 0 0.0050000000000000001 0.0050000000000000001 0 0.0050000000000000001 0 0.016153278899017791 0.044583689206717327 0.01563807923371947 0.0025000000000000001 0.056489871231288402 0.0025000000000000001 0.056489871231288402 0.0025000000000000001 0.0025000000000000001 0.045799116620837459 0.028040759187074001 0.036821396352863953 0.034373062133854368 0.040091712813656893 0.017906843810535381 0.073580292400886219 0.073580292401008413 0 0.028851790063782669 0.0025000000000000001 0.0025000000000000001 0.056489871231288402 0.0025000000000000001 0.0025000000000000001 0.034373062133854368 0.040091712813656893 0.017906843810535381 0.073580292400886219 0.073580292401008413 0 0.0050000000000000001 0 0 0.0050000000000000001 0 0.0050000000000000001 0.056489871231288402 0.0025000000000000001 0.0025000000000000001 0.128749999999761 0 0 0.0095042730786282278 0.0082759167994670979 0.0082480707199308924 0.0045817963841059857 0.0043364158334714669 0.009473343555270677 0.0025000000000000001 0.0025000000000000001 0.02029496691504501 0.01335482532982827 0.061921935510367468 0.031596396334779613 0 0.0050000000000000001 0.0050000000000000001 0.0025000000000000001 0.0025000000000000001 0.02029496691504501 0.0025000000000000001 0.0025000000000000001 0.035993247487525602 0.01335482532982827 0.061921935510367468 0.031596396334779613 0 0.0050000000000000001 0.0050000000000000001 0.0038256098144006869 0.0041400759042262009 0.0039854622984236152 0 0.0050000000000000001 0 0.01459658547112015 0.02963818693411439 0.01348159639352434 0.0050000000000000001 0 0 0.0050000000000000001 0.0050000000000000001 0 0.013289992014046129 0.0065291354129584592 0.0037710740372293499 0.007850875913509971 0.005381679503114206 0.0037846524567980611 0.0050000000000000001 0 0 0.0050000000000000001 0.0050000000000000001 0 0.056489871231288402 0.0025000000000000001 0.0025000000000000001 0.128749999999761 0 0 0.0025000000000000001 0.0025000000000000001 0.035993247487525602 0.053495808280144469 0.082973914578683722 0.047312437411078337 0 0.0736402080526046 0.073773792303481078 0.0025000000000000001 0.0025000000000000001 0.067187500000176273 0.0050000000000000001 0 0 0.0050000000000000001 0.0050000000000000001 0 0.013289992014046129 0.0065291354129584592 0.0037710740372293499 0.028851790063782669 0.0025000000000000001 0.0025000000000000001 0.0050000000000000001 0.0050000000000000001 0 0.010477667344183201 0.01284643002126089 0.00012275481760709659 0.013289992014046129 0.0065291354129584592 0.0037710740372293499 0.028851790063782669 0.0025000000000000001 0.0025000000000000001 0.0050000000000000001 0 0 0.0050000000000000001 0.0050000000000000001 0 0.028851790063782669 0.0025000000000000001 0.0025000000000000001 0.056489871231288402 0.0025000000000000001 0.0025000000000000001 0.0050000000000000001 0.0050000000000000001 0 0 0.0050000000000000001 0 0.0025000000000000001 0.056489871231288402 0.0025000000000000001 0 0.12875000000032791 0 0.0050000000000000001 0.0050000000000000001 0 0.010477667344183201 0.01284643002126089 0.00012275481760709659 0.0025000000000000001 0.056489871231288402 0.0025000000000000001 0 0.12875000000032791 0 0.0050000000000000001 0.0050000000000000001 0 0 0.0050000000000000001 0 0.01459658547112015 0.02963818693411439 0.01348159639352434 0.016153278899017791 0.044583689206717327 0.01563807923371947 0.0050000000000000001 0.0050000000000000001 0 0.010477667344183201 0.01284643002126089 0.00012275481760709659 0.01459658547112015 0.02963818693411439 0.01348159639352434 0.016153278899017791 0.044583689206717327 0.01563807923371947 0.0050000000000000001 0.0050000000000000001 0 0 0.0050000000000000001 0 0.016153278899017791 0.044583689206717327 0.01563807923371947 0.0025000000000000001 0.056489871231288402 0.0025000000000000001 0.0050000000000000001 0.0050000000000000001 0 0.010477667344183201 0.01284643002126089 0.00012275481760709659 0.016153278899017791 0.044583689206717327 0.01563807923371947 0.0025000000000000001 0.056489871231288402 0.0025000000000000001 0.0050000000000000001 0 0.0050000000000000001 0.056489871231288402 0.0025000000000000001 0.0025000000000000001 0.073626545880309466 0 0.073777028331958816 0.0025000000000000001 0.0025000000000000001 0.067187500000176273 0.0025000000000000001 0.0025000000000000001 0.02029496691504501 0.045799116620837459 0.028040759187074001 0.036821396352863953 0
[...]
<PointData Scalars="" Vectors="displacement," Tensors="">
<DataArray type="Float64" Name="displacement" NumberOfComponents="3" format="ascii">
2050978.936364169 2313883.2914478397 3841174.3146994868 2049682.6161660634 2313429.1842371156 3840694.3394155554 2051066.9813967841 2313352.7406887701 3839659.2482961533 2057593.6487309595 2313228.4665679941 3835429.8190572006 2050806.9752012796 2314450.3091462236 3842839.8828225834 2051446.9970180718 2314450.316426564 3842458.7259058347 2073071.1870009671 2318870.9434884884 3841767.2020621183 2094695.4204765097 2323931.5699547771 3842840.0316688227 2062063.6377363175 2316492.9574286472 3841767.1645125295 2068118.2716289281 2314768.3059929395 3833407.110678833 2076358.729703309 2310828.1825889875 3817637.6678131274 2084501.495173834 2319692.9366590446 3837226.4752538214 2050244.7620050225 2307028.822368029 3822715.5511049978 2065625.1360825023 2311013.656460315 3824541.1048038946 2062063.6377363175 2316492.9574286472 3841767.1645125295 2073071.1870009671 2318870.9434884884 3841767.2020621183 2051446.9970180718 2314450.316426564 3842458.7259058347 2053012.4715872048 2313481.3453317215 3838855.1903531319 2052940.5876544646 2314204.8304381487 3840892.5173455253 2068118.2716289281 2314768.3059929395 3833407.110678833 2065625.1360825023 2311013.656460315 3824541.1048038946 2062063.6377363175 2316492.9574286472 3841767.1645125295 2076358.729703309 2310828.1825889875 3817637.6678131274 2073071.1870009671 2318870.9434884884 3841767.2020621183 2050244.7620050225 2307028.822368029 3822715.5511049978 2065625.1360825023 2311013.656460315 3824541.1048038946 2075076.5355280789 2310268.780907087 3816859.075599581 2073071.1870009671 2318870.9434884884 3841767.2020621183 2065625.1360825023 2311013.656460315 3824541.1048038946 2076358.729703309 2310828.1825889875 3817637.6678131274 2075076.5355280789 2310268.780907087 3816859.075599581 2073071.1870009671 2318870.9434884884 3841767.2020621183 2050244.7620050225 2307028.822368029 3822715.5511049978 2065625.1360825023 2311013.656460315 3824541.1048038946 2058460.9865175893 2304650.6931393747 3811266.4472063459 2075076.5355280789 2310268.780907087 3816859.075599581 2065625.1360825023 2311013.656460315 3824541.1048038946 2076358.729703309 2310828.1825889875 3817637.6678131274 2058460.9865175893 2304650.6931393747 3811266.4472063459 2075076.5355280789 2310268.780907087 3816859.075599581 2049042.6340926506 2314069.099453798 3842839.8657046529 2050244.8074708702 2314259.6873950507 3842649.2959342124 2049362.6133968127 2313749.132976959 3841767.1304557631 2049924.8158856898 2313939.665870206 3841957.6964354888 2050806.9752012796 2314450.3091462236 3842839.8828225834 2051446.9970180718 2314450.316426564 3842458.7259058347 2062063.6377363175 2316492.9574286472 3841767.1645125295 2073071.1870009671 2318870.9434884884 3841767.2020621183 2050730.2890619787 2312737.3836768745 3838163.296966088 2051066.9813967841 2313352.7406887701 3839659.2482961533 2053012.4715872048 2313481.3453317215 3838855.1903531319 2057593.6487309595 2313228.4665679941 3835429.8190572006 2049682.6161660634 2313429.1842371156 3840694.3394155554 2050730.2890619787 2312737.3836768745 3838163.296966088 2051066.9813967841 2313352.7406887701 3839659.2482961533 2057593.6487309595 2313228.4665679941 3835429.8190572006 2050978.936364169 2313883.2914478397 3841174.3146994868 2051066.9813967841 2313352.7406887701 3839659.2482961533 2053012.4715872048 2313481.3453317215 3838855.1903531319 2057593.6487309595 2313228.4665679941 3835429.8190572006 2049042.6340926506 2314069.099453798 3842839.8657046529 2050244.8074708702 2314259.6873950507 3842649.2959342124 2049362.6133968127 2313749.132976959 3841767.1304557631 2049682.6330544373 2314069.1687830649 3842458.7169081364 2050730.2890619787 2312737.3836768745 3838163.296966088 2053012.4715872048 2313481.3453317215 3838855.1903531319 2057593.6487309595 2313228.4665679941 3835429.8190572006 2060493.2579746258 2311034.3582356093 3827654.3766816338 2050806.9452293541 2313810.2858573892 3841075.5291718827 2050806.9752012796 2314450.3091462236 3842839.8828225834 2073071.1870009671 2318870.9434884884 3841767.2020621183 2094695.4204765097 2323931.5699547771 3842840.0316688227 2053012.4715872048 2313481.3453317215 3838855.1903531319 2056524.159232409 2315296.2445851718 3841767.1407943359 2065625.1360825023 2311013.656460315 3824541.1048038946 2060493.2579746258 2311034.3582356093 3827654.3766816338 2050806.9452293541 2313810.2858573892 3841075.5291718827 2052940.5876544646 2314204.8304381487 3840892.5173455253 2056524.159232409 2315296.2445851718 3841767.1407943359 2050244.7620050225 2307028.822368029 3822715.5511049978 2050806.9452293541 2313810.2858573892 3841075.5291718827 2052940.5876544646 2314204.8304381487 3840892.5173455253 2050244.7815968816 2310566.6225457969 3832468.2733172979 2050244.7620050225 2307028.822368029 3822715.5511049978 2053012.4715872048 2313481.3453317215 3838855.1903531319 2052940.5876544646 2314204.8304381487 3840892.5173455253 2056524.159232409 2315296.2445851718 3841767.1407943359 2050244.7620050225 2307028.822368029 3822715.5511049978 2053012.4715872048 2313481.3453317215 3838855.1903531319 2052940.5876544646 2314204.8304381487 3840892.5173455253 2050244.7815968816 2310566.6225457969 3832468.2733172979 2050244.7620050225 2307028.822368029 3822715.5511049978 2053012.4715872048 2313481.3453317215 3838855.1903531319 2056524.159232409 2315296.2445851718 3841767.1407943359 2050244.7620050225 2307028.822368029 3822715.5511049978 2065625.1360825023 2311013.656460315 3824541.1048038946 2051446.9970180718 2314450.316426564 3842458.7259058347 2049682.6330544373 2314069.1687830649 3842458.7169081364 2060267.661128233 2313193.5999501646 3833741.2344490713 2057155.6070974397 2313939.7285618125 3837651.5012985351 2050244.7620050225 2307028.822368029 3822715.5511049978 2065625.1360825023 2311013.656460315 3824541.1048038946 2060493.2579746258 2311034.3582356093 3827654.3766816338 2058460.9865175893 2304650.6931393747 3811266.4472063459 2050244.7815968816 2310566.6225457969 3832468.2733172979 2050244.7620050225 2307028.822368029 3822715.5511049978 2060493.2579746258 2311034.3582356093 3827654.3766816338 2058460.9865175893 2304650.6931393747 3811266.4472063459 2049042.6018872762 2313429.1839051768 3841075.4989612573 2050806.9452293541 2313810.2858573892 3841075.5291718827 2050244.7620050225 2307028.822368029 3822715.5511049978 2049042.5458170669 2297588.7215986457 3797407.4931301074 2053012.4715872048 2313481.3453317215 3838855.1903531319 2052940.5876544646 2314204.8304381487 3840892.5173455253 2056524.159232409 2315296.2445851718 3841767.1407943359 2068118.2716289281 2314768.3059929395 3833407.110678833 2051446.9970180718 2314450.316426564 3842458.7259058347 2056524.159232409 2315296.2445851718 3841767.1407943359 2062063.6377363175 2316492.9574286472 3841767.1645125295 2068118.2716289281 2314768.3059929395 3833407.110678833 2051446.9970180718 2314450.316426564 3842458.7259058347 2050978.936364169 2313883.2914478397 3841174.3146994868 2049682.6330544373 2314069.1687830649 3842458.7169081364 2057593.6487309595 2313228.4665679941 3835429.8190572006 2049042.6018872762 2313429.1839051768 3841075.4989612573 2049682.6161660634 2313429.1842371156 3840694.3394155554 2051209.0534864806 2312655.4826507168 3837652.4714881303 2051066.9813967841 2313352.7406887701 3839659.2482961533 2049042.6018872762 2313429.1839051768 3841075.4989612573 2049682.6161660634 2313429.1842371156 3840694.3394155554 2050244.7620050225 2307028.822368029 3822715.5511049978 2049042.5458170669 2297588.7215986457 3797407.4931301074 2062063.6377363175 2316492.9574286472 3841767.1645125295 2076358.729703309 2310828.1825889875 3817637.6678131274 2084501.495173834 2319692.9366590446 3837226.4752538214 2073071.1870009671 2318870.9434884884 3841767.2020621183 2049042.6018872762 2313429.1839051768 3841075.4989612573 2049682.6161660634 2313429.1842371156 3840694.3394155554 2051209.0534864806 2312655.4826507168 3837652.4714881303 2050244.7815968816 2310566.6225457969 3832468.2733172979 2049682.6161660634 2313429.1842371156 3840694.3394155554 2050730.2890619787 2312737.3836768745 3838163.296966088 2051209.0534864806 2312655.4826507168 3837652.4714881303 2050244.7815968816 2310566.6225457969 3832468.2733172979 2049042.6018872762 2313429.1839051768 3841075.4989612573 2049682.6161660634 2313429.1842371156 3840694.3394155554 2050244.7815968816 2310566.6225457969 3832468.2733172979 2050244.7620050225 2307028.822368029 3822715.5511049978 2049682.6161660634 2313429.1842371156 3840694.3394155554 2049682.6330544373 2314069.1687830649 3842458.7169081364 2057155.6070974397 2313939.7285618125 3837651.5012985351 2065522.8458800016 2314069.1334596439 3833025.3596245088 2049682.6161660634 2313429.1842371156 3840694.3394155554 2050730.2890619787 2312737.3836768745 3838163.296966088 2057155.6070974397 2313939.7285618125 3837651.5012985351 2065522.8458800016 2314069.1334596439 3833025.3596245088 2049682.6161660634 2313429.1842371156 3840694.3394155554 2049682.6330544373 2314069.1687830649 3842458.7169081364 2057593.6487309595 2313228.4665679941 3835429.8190572006 2060267.661128233 2313193.5999501646 3833741.2344490713 2049682.6161660634 2313429.1842371156 3840694.3394155554 2050730.2890619787 2312737.3836768745 3838163.296966088 2057593.6487309595 2313228.4665679941 3835429.8190572006 2060267.661128233 2313193.5999501646 3833741.2344490713 2049682.6161660634 2313429.1842371156 3840694.3394155554 2049682.6330544373 2314069.1687830649 3842458.7169081364 2060267.661128233 2313193.5999501646 3833741.2344490713 2057155.6070974397 2313939.7285618125 3837651.5012985351 2049682.6161660634 2313429.1842371156 3840694.3394155554 2050730.2890619787 2312737.3836768745 3838163.296966088 2060267.661128233 2313193.5999501646 3833741.2344490713 2057155.6070974397 2313939.7285618125 3837651.5012985351 2050806.9452293541 2313810.2858573892 3841075.5291718827 2050244.7620050225 2307028.822368029 3822715.5511049978 2075076.5355280789 2310268.780907087 3816859.075599581 2073071.1870009671 2318870.9434884884 3841767.2020621183 2056524.159232409 2315296.2445851718 3841767.1407943359 2065625.1360825023 2311013.656460315 3824541.1048038946 2062063.6377363175 2316492.9574286472 3841767.1645125295 2060493.2579746258 2311034.3582356093 3827654.3766816338 2050806.9452293541 2313810.2858573892 3841075.5291718827 2050244.7620050225 2307028.822368029 3822715.5511049978 2062063.6377363175 2316492.9574286472 3841767.1645125295 2073071.1870009671 2318870.9434884884 3841767.2020621183 2051446.9970180718 2314450.316426564 3842458.7259058347 2053012.4715872048 2313481.3453317215 3838855.1903531319 2057593.6487309595 2313228.4665679941 3835429.8190572006 2068118.2716289281 2314768.3059929395 3833407.110678833 2051446.9970180718 2314450.316426564 3842458.7259058347 2062063.6377363175 2316492.9574286472 3841767.1645125295 2084501.495173834 2319692.9366590446 3837226.4752538214 2073071.1870009671 2318870.9434884884 3841767.2020621183 2051446.9970180718 2314450.316426564 3842458.7259058347 2062063.6377363175 2316492.9574286472 3841767.1645125295 2068118.2716289281 2314768.3059929395 3833407.110678833 2084501.495173834 2319692.9366590446 3837226.4752538214 2051446.9970180718 2314450.316426564 3842458.7259058347 2052940.5876544646 2314204.8304381487 3840892.5173455253 2056524.159232409 2315296.2445851718 3841767.1407943359 2068118.2716289281 2314768.3059929395 3833407.110678833 2050978.936364169 2313883.2914478397 3841174.3146994868 2049682.6161660634 2313429.1842371156 3840694.3394155554 2049682.6330544373 2314069.1687830649 3842458.7169081364 2057593.6487309595 2313228.4665679941 3835429.8190572006 2051209.0534864806 2312655.4826507168 3837652.4714881303 2053012.4715872048 2313481.3453317215 3838855.1903531319 2050244.7815968816 2310566.6225457969 3832468.2733172979 2060493.2579746258 2311034.3582356093 3827654.3766816338 2065625.1360825023 2311013.656460315 3824541.1048038946 2062063.6377363175 2316492.9574286472 3841767.1645125295 2060493.2579746258 2311034.3582356093 3827654.3766816338 2076358.729703309 2310828.1825889875 3817637.6678131274 2049042.6340926506 2314069.099453798 3842839.8657046529 2049362.6133968127 2313749.132976959 3841767.1304557631 2049924.8158856898 2313939.665870206 3841957.6964354888 2049042.6018872762 2313429.1839051768 3841075.4989612573 2062063.6377363175 2316492.9574286472 3841767.1645125295 2068118.2716289281 2314768.3059929395 3833407.110678833 2060493.2579746258 2311034.3582356093 3827654.3766816338 2076358.729703309 2310828.1825889875 3817637.6678131274 2049042.6340926506 2314069.099453798 3842839.8657046529 2050244.8074708702 2314259.6873950507 3842649.2959342124 2049924.8158856898 2313939.665870206 3841957.6964354888 2050806.9752012796 2314450.3091462236 3842839.8828225834 2049682.6161660634 2313429.1842371156 3840694.3394155554 2050730.2890619787 2312737.3836768745 3838163.296966088 2050244.7815968816 2310566.6225457969 3832468.2733172979 2058460.9865175893 2304650.6931393747 3811266.4472063459 2049682.6161660634 2313429.1842371156 3840694.3394155554 2050244.7815968816 2310566.6225457969 3832468.2733172979 2050244.7620050225 2307028.822368029 3822715.5511049978 2058460.9865175893 2304650.6931393747 3811266.4472063459 2056524.159232409 2315296.2445851718 3841767.1407943359 2062063.6377363175 2316492.9574286472 3841767.1645125295 2068118.2716289281 2314768.3059929395 3833407.110678833 2060493.2579746258 2311034.3582356093 3827654.3766816338 2049042.6018872762 2313429.1839051768 3841075.4989612573 2050806.9452293541 2313810.2858573892 3841075.5291718827 2051209.0534864806 2312655.4826507168 3837652.4714881303 2051066.9813967841 2313352.7406887701 3839659.2482961533 2050730.2890619787 2312737.3836768745 3838163.296966088 2050244.7815968816 2310566.6225457969 3832468.2733172979 2057155.6070974397 2313939.7285618125 3837651.5012985351 2058460.9865175893 2304650.6931393747 3811266.4472063459 2050244.7815968816 2310566.6225457969 3832468.2733172979 2060493.2579746258 2311034.3582356093 3827654.3766816338 2057155.6070974397 2313939.7285618125 3837651.5012985351 2058460.9865175893 2304650.6931393747 3811266.4472063459 2049042.6018872762 2313429.1839051768 3841075.4989612573 2050806.9452293541 2313810.2858573892 3841075.5291718827 2051209.0534864806 2312655.4826507168 3837652.4714881303 2050244.7815968816 2310566.6225457969 3832468.2733172979 2050244.8074708702 2314259.6873950507 3842649.2959342124 2049362.6133968127 2313749.132976959 3841767.1304557631 2050978.936364169 2313883.2914478397 3841174.3146994868 2049682.6330544373 2314069.1687830649 3842458.7169081364 2049362.6133968127 2313749.132976959 3841767.1304557631 2049924.8158856898 2313939.665870206 3841957.6964354888 2049042.6018872762 2313429.1839051768 3841075.4989612573 2050978.936364169 2313883.2914478397 3841174.3146994868 2050806.9452293541 2313810.2858573892 3841075.5291718827 2051209.0534864806 2312655.4826507168 3837652.4714881303 2051066.9813967841 2313352.7406887701 3839659.2482961533 2052940.5876544646 2314204.8304381487 3840892.5173455253 2051209.0534864806 2312655.4826507168 3837652.4714881303 2053012.4715872048 2313481.3453317215 3838855.1903531319 2052940.5876544646 2314204.8304381487 3840892.5173455253 2050244.7815968816 2310566.6225457969 3832468.2733172979 2049682.6161660634 2313429.1842371156 3840694.3394155554 2050730.2890619787 2312737.3836768745 3838163.296966088 2058460.9865175893 2304650.6931393747 3811266.4472063459 2065522.8458800016 2314069.1334596439 3833025.3596245088 2050806.9452293541 2313810.2858573892 3841075.5291718827 2051209.0534864806 2312655.4826507168 3837652.4714881303 2052940.5876544646 2314204.8304381487 3840892.5173455253 2050244.7815968816 2310566.6225457969 3832468.2733172979 2051446.9970180718 2314450.316426564 3842458.7259058347 2049682.6330544373 2314069.1687830649 3842458.7169081364 2057593.6487309595 2313228.4665679941 3835429.8190572006 2060267.661128233 2313193.5999501646 3833741.2344490713 2050730.2890619787 2312737.3836768745 3838163.296966088 2051209.0534864806 2312655.4826507168 3837652.4714881303 2053012.4715872048 2313481.3453317215 3838855.1903531319 2060493.2579746258 2311034.3582356093 3827654.3766816338 2050244.8074708702 2314259.6873950507 3842649.2959342124 2049924.8158856898 2313939.665870206 3841957.6964354888 2050806.9752012796 2314450.3091462236 3842839.8828225834 2050978.936364169 2313883.2914478397 3841174.3146994868 2049042.6018872762 2313429.1839051768 3841075.4989612573 2050806.9452293541 2313810.2858573892 3841075.5291718827 2050244.7815968816 2310566.6225457969 3832468.2733172979 2050244.7620050225 2307028.822368029 3822715.5511049978 2050806.9452293541 2313810.2858573892 3841075.5291718827 2056524.159232409 2315296.2445851718 3841767.1407943359 2050244.7620050225 2307028.822368029 3822715.5511049978 2062063.6377363175 2316492.9574286472 3841767.1645125295 2051446.9970180718 2314450.316426564 3842458.7259058347 2049682.6330544373 2314069.1687830649 3842458.7169081364 2057155.6070974397 2313939.7285618125 3837651.5012985351 2065522.8458800016 2314069.1334596439 3833025.3596245088 2053012.4715872048 2313481.3453317215 3838855.1903531319 2056524.159232409 2315296.2445851718 3841767.1407943359 2068118.2716289281 2314768.3059929395 3833407.110678833 2060493.2579746258 2311034.3582356093 3827654.3766816338 2056524.159232409 2315296.2445851718 3841767.1407943359 2050244.7620050225 2307028.822368029 3822715.5511049978 2065625.1360825023 2311013.656460315 3824541.1048038946 2062063.6377363175 2316492.9574286472 3841767.1645125295 2050730.2890619787 2312737.3836768745 3838163.296966088 2050244.7815968816 2310566.6225457969 3832468.2733172979 2060493.2579746258 2311034.3582356093 3827654.3766816338 2057155.6070974397 2313939.7285618125 3837651.5012985351 2051446.9970180718 2314450.316426564 3842458.7259058347 2050978.936364169 2313883.2914478397 3841174.3146994868 2053012.4715872048 2313481.3453317215 3838855.1903531319 2057593.6487309595 2313228.4665679941 3835429.8190572006 2050730.2890619787 2312737.3836768745 3838163.296966088 2051209.0534864806 2312655.4826507168 3837652.4714881303 2050244.7815968816 2310566.6225457969 3832468.2733172979 2060493.2579746258 2311034.3582356093 3827654.3766816338 2051446.9970180718 2314450.316426564 3842458.7259058347 2050978.936364169 2313883.2914478397 3841174.3146994868 2053012.4715872048 2313481.3453317215 3838855.1903531319 2052940.5876544646 2314204.8304381487 3840892.5173455253 2050806.9452293541 2313810.2858573892 3841075.5291718827 2050806.9752012796 2314450.3091462236 3842839.8828225834 2062063.6377363175 2316492.9574286472 3841767.1645125295 2073071.1870009671 2318870.9434884884 3841767.2020621183 2050244.8074708702 2314259.6873950507 3842649.2959342124 2049362.6133968127 2313749.132976959 3841767.1304557631 2049924.8158856898 2313939.665870206 3841957.6964354888 2050978.936364169 2313883.2914478397 3841174.3146994868 2049042.6018872762 2313429.1839051768 3841075.4989612573 2050978.936364169 2313883.2914478397 3841174.3146994868 2049682.6161660634 2313429.1842371156 3840694.3394155554 2051066.9813967841 2313352.7406887701 3839659.2482961533 2049924.8158856898 2313939.665870206 3841957.6964354888 2049042.6018872762 2313429.1839051768 3841075.4989612573 2050806.9452293541 2313810.2858573892 3841075.5291718827 2050978.936364169 2313883.2914478397 3841174.3146994868 2049042.6018872762 2313429.1839051768 3841075.4989612573 2050806.9452293541 2313810.2858573892 3841075.5291718827 2050978.936364169 2313883.2914478397 3841174.3146994868 2051066.9813967841 2313352.7406887701 3839659.2482961533 2049362.6133968127 2313749.132976959 3841767.1304557631 2049042.6018872762 2313429.1839051768 3841075.4989612573 2050978.936364169 2313883.2914478397 3841174.3146994868 2049682.6161660634 2313429.1842371156 3840694.3394155554 2050806.9452293541 2313810.2858573892 3841075.5291718827 2050978.936364169 2313883.2914478397 3841174.3146994868 2051066.9813967841 2313352.7406887701 3839659.2