<?xml version="1.0"?>
<VTKFile type="UnstructuredGrid" version="0.1" byte_order="LittleEndian">
<UnstructuredGrid>
<Piece NumberOfPoints="21736" NumberOfCells="5434">
<Points>
<DataArray type="Float64" NumberOfComponents="3" format="ascii">
0 0 0 0.06323106138816019 0.062142082272951933 0.059406074834875783 0 0.12500000000052011 0 0.097115124458785826 0.097115124458952332 0 0 0 0 0.06323106138816019 0.062142082272951933 0.059406074834875783 0.097115124458785826 0.097115124458952332 0 0.12499999999977381 0 0 0 0 0 0.06323106138816019 0.062142082272951933 0.059406074834875783 0 0 0.12499999999977381 0.097115124458877891 0 0.097115124458877891 0 0 0 0.06323106138816019 0.062142082272951933 0.059406074834875783 0.097115124458877891 0 0.097115124458877891 0.12499999999977381 0 0 0 0 0 0.06323106138816019 0.062142082272951933 0.059406074834875783 0 0.097115124458952332 0.097115124458785826 0 0.12500000000052011 0 0 0 0 0.06323106138816019 0.062142082272951933 0.059406074834875783 0 0 0.12499999999977381 0 0.097115124458952332 0.097115124458785826 0 0 0.12499999999977381 0.072551601355543657 0 0.18244710269698541 0.061562519669449138 0.059434890704512577 0.14640236215318811 0.097115124458877891 0 0.097115124458877891 0 0 0.12499999999977381 0.072551601355543657 0 0.18244710269698541 0.061562519669449138 0.059434890704512577 0.14640236215318811 0 0 0.24999999999941239 0 0 0.12499999999977381 0 0.073316820370859764 0.18109440156403181 0.061562519669449138 0.059434890704512577 0.14640236215318811 0 0 0.24999999999941239 0.072551601355543657 0 0.18244710269698541 0.061562519669449138 0.059434890704512577 0.14640236215318811 0.08935723244776661 0.086883235764133676 0.21915734371072179 0 0 0.24999999999941239 0 0.073316820370859764 0.18109440156403181 0.061562519669449138 0.059434890704512577 0.14640236215318811 0.08935723244776661 0.086883235764133676 0.21915734371072179 0 0 0.24999999999941239 0.06323106138816019 0.062142082272951933 0.059406074834875783 0 0 0.12499999999977381 0.061562519669449138 0.059434890704512577 0.14640236215318811 0.097115124458877891 0 0.097115124458877891 0.06323106138816019 0.062142082272951933 0.059406074834875783 0.061562519669449138 0.059434890704512577 0.14640236215318811 0 0.097115124458952332 0.097115124458785826 0.1289262165046228 0.1094244395929215 0.109406571350707 0.06323106138816019 0.062142082272951933 0.059406074834875783 0 0 0.12499999999977381 0.061562519669449138 0.059434890704512577 0.14640236215318811 0 0.097115124458952332 0.097115124458785826 0 0 0.12499999999977381 0 0.073316820370859764 0.18109440156403181 0.061562519669449138 0.059434890704512577 0.14640236215318811 0 0.097115124458952332 0.097115124458785826 0 0.073316820370859764 0.18109440156403181 0.061562519669449138 0.059434890704512577 0.14640236215318811 0 0.097115124458952332 0.097115124458785826 0 0.17009619771987891 0.16806798983665569 0 0.17009619771987891 0.16806798983665569 0.07291569808422331 0.1826984339026739 0.06727569697794418 0.1289262165046228 0.1094244395929215 0.109406571350707 0.1307313911228048 0.2541486156333484 0.12772207903554619 0.061562519669449138 0.059434890704512577 0.14640236215318811 0 0.097115124458952332 0.097115124458785826 0 0.17009619771987891 0.16806798983665569 0.1289262165046228 0.1094244395929215 0.109406571350707 0 0.097115124458952332 0.097115124458785826 0 0.17009619771987891 0.16806798983665569 0.07291569808422331 0.1826984339026739 0.06727569697794418 0.1289262165046228 0.1094244395929215 0.109406571350707 0 0.17009619771987891 0.16806798983665569 0.08935723244776661 0.086883235764133676 0.21915734371072179 0.098222284833748397 0.2197439980240854 0.23619361920574031 0 0.099372779675467607 0.26528889352553142 0 0.17009619771987891 0.16806798983665569 0.1289262165046228 0.1094244395929215 0.109406571350707 0.08935723244776661 0.086883235764133676 0.21915734371072179 0.098222284833748397 0.2197439980240854 0.23619361920574031 0 0.073316820370859764 0.18109440156403181 0 0.17009619771987891 0.16806798983665569 0.08935723244776661 0.086883235764133676 0.21915734371072179 0 0.099372779675467607 0.26528889352553142 0 0.073316820370859764 0.18109440156403181 0.061562519669449138 0.059434890704512577 0.14640236215318811 0 0.17009619771987891 0.16806798983665569 0.08935723244776661 0.086883235764133676 0.21915734371072179 0.061562519669449138 0.059434890704512577 0.14640236215318811 0 0.17009619771987891 0.16806798983665569 0.1289262165046228 0.1094244395929215 0.109406571350707 0.08935723244776661 0.086883235764133676 0.21915734371072179 0 0.17009619771987891 0.16806798983665569 0.098222284833748397 0.2197439980240854 0.23619361920574031 0 0.2134112930234815 0.28239564278595841 0 0.28674406688656878 0.2119407166408592 0 0.17009619771987891 0.16806798983665569 0.07291569808422331 0.1826984339026739 0.06727569697794418 0.1307313911228048 0.2541486156333484 0.12772207903554619 0 0.26324808216617729 0.1061976352567853 0 0.097115124458952332 0.097115124458785826 0 0.17009619771987891 0.16806798983665569 0 0.1810918808693138 0.074276149910445372 0.07291569808422331 0.1826984339026739 0.06727569697794418 0 0.17009619771987891 0.16806798983665569 0 0.1810918808693138 0.074276149910445372 0.07291569808422331 0.1826984339026739 0.06727569697794418 0 0.26324808216617729 0.1061976352567853 0 0.1810918808693138 0.074276149910445372 0.07291569808422331 0.1826984339026739 0.06727569697794418 0 0.25000000000104039 0 0 0.26324808216617729 0.1061976352567853 0 0.1810918808693138 0.074276149910445372 0 0.12500000000052011 0 0.07291569808422331 0.1826984339026739 0.06727569697794418 0 0.25000000000104039 0 0 0.097115124458952332 0.097115124458785826 0 0.1810918808693138 0.074276149910445372 0 0.12500000000052011 0 0.07291569808422331 0.1826984339026739 0.06727569697794418 0.06323106138816019 0.062142082272951933 0.059406074834875783 0 0.12500000000052011 0 0.07291569808422331 0.1826984339026739 0.06727569697794418 0.097115124458785826 0.097115124458952332 0 0.06323106138816019 0.062142082272951933 0.059406074834875783 0 0.097115124458952332 0.097115124458785826 0 0.12500000000052011 0 0.07291569808422331 0.1826984339026739 0.06727569697794418 0.06323106138816019 0.062142082272951933 0.059406074834875783 0 0.097115124458952332 0.097115124458785826 0.07291569808422331 0.1826984339026739 0.06727569697794418 0.1289262165046228 0.1094244395929215 0.109406571350707 0 0.12500000000052011 0 0.074276107326000582 0.18109175666468211 0 0.07291569808422331 0.1826984339026739 0.06727569697794418 0.097115124458785826 0.097115124458952332 0 0.074276107326000582 0.18109175666468211 0 0.07291569808422331 0.1826984339026739 0.06727569697794418 0.10619742233455839 0.26324746114302949 0 0 0.25000000000104039 0 0 0.12500000000052011 0 0.074276107326000582 0.18109175666468211 0 0.07291569808422331 0.1826984339026739 0.06727569697794418 0 0.25000000000104039 0 0.07291569808422331 0.1826984339026739 0.06727569697794418 0.20025673477961189 0.19140754843858721 0.073010113208307331 0.1307313911228048 0.2541486156333484 0.12772207903554619 0.10619742233455839 0.26324746114302949 0 0.07291569808422331 0.1826984339026739 0.06727569697794418 0.1680679898366586 0.17009619771986781 0 0.20025673477961189 0.19140754843858721 0.073010113208307331 0.1289262165046228 0.1094244395929215 0.109406571350707 0.07291569808422331 0.1826984339026739 0.06727569697794418 0.1680679898366586 0.17009619771986781 0 0.20025673477961189 0.19140754843858721 0.073010113208307331 0.10619742233455839 0.26324746114302949 0 0.074276107326000582 0.18109175666468211 0 0.07291569808422331 0.1826984339026739 0.06727569697794418 0.097115124458785826 0.097115124458952332 0 0.1680679898366586 0.17009619771986781 0 0.074276107326000582 0.18109175666468211 0 0.07291569808422331 0.1826984339026739 0.06727569697794418 0.1680679898366586 0.17009619771986781 0 0.10619742233455839 0.26324746114302949 0 0.06323106138816019 0.062142082272951933 0.059406074834875783 0.07291569808422331 0.1826984339026739 0.06727569697794418 0.097115124458785826 0.097115124458952332 0 0.1289262165046228 0.1094244395929215 0.109406571350707 0.07291569808422331 0.1826984339026739 0.06727569697794418 0.097115124458785826 0.097115124458952332 0 0.1680679898366586 0.17009619771986781 0 0.1289262165046228 0.1094244395929215 0.109406571350707 0.097115124458785826 0.097115124458952332 0 0.1680679898366586 0.17009619771986781 0 0.1289262165046228 0.1094244395929215 0.109406571350707 0.18109440156403669 0.073316820370859112 0 0.1680679898366586 0.17009619771986781 0 0.22141769647606749 0.080862311673354156 0.083931555580687142 0.18109440156403669 0.073316820370859112 0 0.26528889352555279 0.099372779675475503 0 0.1680679898366586 0.17009619771986781 0 0.20025673477961189 0.19140754843858721 0.073010113208307331 0.1289262165046228 0.1094244395929215 0.109406571350707 0.22141769647606749 0.080862311673354156 0.083931555580687142 0.1680679898366586 0.17009619771986781 0 0.1289262165046228 0.1094244395929215 0.109406571350707 0.22141769647606749 0.080862311673354156 0.083931555580687142 0.18109440156403669 0.073316820370859112 0 0.1680679898366586 0.17009619771986781 0 0.20025673477961189 0.19140754843858721 0.073010113208307331 0.22141769647606749 0.080862311673354156 0.083931555580687142 0.26528889352555279 0.099372779675475503 0 0.1680679898366586 0.17009619771986781 0 0.20025673477961189 0.19140754843858721 0.073010113208307331 0.28238962436783799 0.21335287803006631 0 0.21199123149808141 0.28671388592782698 0 0.20670689941440221 0.17652359486693919 0.1821174131237745 0.1289262165046228 0.1094244395929215 0.109406571350707 0.098222284833748397 0.2197439980240854 0.23619361920574031 0.1307313911228048 0.2541486156333484 0.12772207903554619 0 0.17009619771987891 0.16806798983665569 0.1289262165046228 0.1094244395929215 0.109406571350707 0.098222284833748397 0.2197439980240854 0.23619361920574031 0.1307313911228048 0.2541486156333484 0.12772207903554619 0.20025673477961189 0.19140754843858721 0.07301011320
[...]
<PointData Scalars="" Vectors="displacement," Tensors="">
<DataArray type="Float64" Name="displacement" NumberOfComponents="3" format="ascii">
0.00012806082275267872 0.00013054079120278301 0.00036378873228798864 0.00013939923556919405 0.00014184539023999381 0.00036621365978326204 0.00012817132302672156 9.9274838560505809e-05 0.00030710510848100717 0.00010393599026489725 0.000106103473606814 0.00027553245293279152 0.00012806082275267872 0.00013054079120278301 0.00036378873228798864 0.00013939923556919405 0.00014184539023999381 0.00036621365978326204 0.00010393599026489725 0.000106103473606814 0.00027553245293279152 9.6788281315099168e-05 0.00013025177692438039 0.00030693052207928401 0.00012806082275267872 0.00013054079120278301 0.00036378873228798864 0.00013939923556919405 0.00014184539023999381 0.00036621365978326204 0.00018492572654674023 0.0001872362554714667 0.00048881925290884137 0.00014791100857736993 0.00017440137344980924 0.00041672239756610185 0.00012806082275267872 0.00013054079120278301 0.00036378873228798864 0.00013939923556919405 0.00014184539023999381 0.00036621365978326204 0.00014791100857736993 0.00017440137344980924 0.00041672239756610185 9.6788281315099168e-05 0.00013025177692438039 0.00030693052207928401 0.00012806082275267872 0.00013054079120278301 0.00036378873228798864 0.00013939923556919405 0.00014184539023999381 0.00036621365978326204 0.00017240003063418374 0.00015026408314511801 0.00041686498704861252 0.00012817132302672156 9.9274838560505809e-05 0.00030710510848100717 0.00012806082275267872 0.00013054079120278301 0.00036378873228798864 0.00013939923556919405 0.00014184539023999381 0.00036621365978326204 0.00018492572654674023 0.0001872362554714667 0.00048881925290884137 0.00017240003063418374 0.00015026408314511801 0.00041686498704861252 0.00018492572654674023 0.0001872362554714667 0.00048881925290884137 0.00019287079967166183 0.00021316403646413009 0.00051328738553341983 0.00017938103657924443 0.00018197903381017737 0.00045522145285538395 0.00014791100857736993 0.00017440137344980924 0.00041672239756610185 0.00018492572654674023 0.0001872362554714667 0.00048881925290884137 0.00019287079967166183 0.00021316403646413009 0.00051328738553341983 0.00017938103657924443 0.00018197903381017737 0.00045522145285538395 0.00024177244796581897 0.00024393109712834602 0.00061396043260192475 0.00018492572654674023 0.0001872362554714667 0.00048881925290884137 0.00021055819966279675 0.00019429384938275608 0.00051168708656044168 0.00017938103657924443 0.00018197903381017737 0.00045522145285538395 0.00024177244796581897 0.00024393109712834602 0.00061396043260192475 0.00019287079967166183 0.00021316403646413009 0.00051328738553341983 0.00017938103657924443 0.00018197903381017737 0.00045522145285538395 0.00020556631153487298 0.00020807948203393952 0.00050289434706959554 0.00024177244796581897 0.00024393109712834602 0.00061396043260192475 0.00021055819966279675 0.00019429384938275608 0.00051168708656044168 0.00017938103657924443 0.00018197903381017737 0.00045522145285538395 0.00020556631153487298 0.00020807948203393952 0.00050289434706959554 0.00024177244796581897 0.00024393109712834602 0.00061396043260192475 0.00013939923556919405 0.00014184539023999381 0.00036621365978326204 0.00018492572654674023 0.0001872362554714667 0.00048881925290884137 0.00017938103657924443 0.00018197903381017737 0.00045522145285538395 0.00014791100857736993 0.00017440137344980924 0.00041672239756610185 0.00013939923556919405 0.00014184539023999381 0.00036621365978326204 0.00017938103657924443 0.00018197903381017737 0.00045522145285538395 0.00017240003063418374 0.00015026408314511801 0.00041686498704861252 0.00014583194096998999 0.00015259117460372505 0.00036477088254433394 0.00013939923556919405 0.00014184539023999381 0.00036621365978326204 0.00018492572654674023 0.0001872362554714667 0.00048881925290884137 0.00017938103657924443 0.00018197903381017737 0.00045522145285538395 0.00017240003063418374 0.00015026408314511801 0.00041686498704861252 0.00018492572654674023 0.0001872362554714667 0.00048881925290884137 0.00021055819966279675 0.00019429384938275608 0.00051168708656044168 0.00017938103657924443 0.00018197903381017737 0.00045522145285538395 0.00017240003063418374 0.00015026408314511801 0.00041686498704861252 0.00021055819966279675 0.00019429384938275608 0.00051168708656044168 0.00017938103657924443 0.00018197903381017737 0.00045522145285538395 0.00017240003063418374 0.00015026408314511801 0.00041686498704861252 0.00020469244508546222 0.00016411329685498671 0.00045473189145533581 0.00020469244508546222 0.00016411329685498671 0.00045473189145533581 0.00014051947001502798 0.00011541496527643539 0.00031493641850392393 0.00014583194096998999 0.00015259117460372505 0.00036477088254433394 0.00015334823658990119 0.00012505678822994569 0.00031645042750056844 0.00017938103657924443 0.00018197903381017737 0.00045522145285538395 0.00017240003063418374 0.00015026408314511801 0.00041686498704861252 0.00020469244508546222 0.00016411329685498671 0.00045473189145533581 0.00014583194096998999 0.00015259117460372505 0.00036477088254433394 0.00017240003063418374 0.00015026408314511801 0.00041686498704861252 0.00020469244508546222 0.00016411329685498671 0.00045473189145533581 0.00014051947001502798 0.00011541496527643539 0.00031493641850392393 0.00014583194096998999 0.00015259117460372505 0.00036477088254433394 0.00020469244508546222 0.00016411329685498671 0.00045473189145533581 0.00020556631153487298 0.00020807948203393952 0.00050289434706959554 0.0002111066161128353 0.00018264282384244045 0.00045542939340751238 0.00024891679526662031 0.00022594454357957681 0.00058415859760320584 0.00020469244508546222 0.00016411329685498671 0.00045473189145533581 0.00014583194096998999 0.00015259117460372505 0.00036477088254433394 0.00020556631153487298 0.00020807948203393952 0.00050289434706959554 0.0002111066161128353 0.00018264282384244045 0.00045542939340751238 0.00021055819966279675 0.00019429384938275608 0.00051168708656044168 0.00020469244508546222 0.00016411329685498671 0.00045473189145533581 0.00020556631153487298 0.00020807948203393952 0.00050289434706959554 0.00024891679526662031 0.00022594454357957681 0.00058415859760320584 0.00021055819966279675 0.00019429384938275608 0.00051168708656044168 0.00017938103657924443 0.00018197903381017737 0.00045522145285538395 0.00020469244508546222 0.00016411329685498671 0.00045473189145533581 0.00020556631153487298 0.00020807948203393952 0.00050289434706959554 0.00017938103657924443 0.00018197903381017737 0.00045522145285538395 0.00020469244508546222 0.00016411329685498671 0.00045473189145533581 0.00014583194096998999 0.00015259117460372505 0.00036477088254433394 0.00020556631153487298 0.00020807948203393952 0.00050289434706959554 0.00020469244508546222 0.00016411329685498671 0.00045473189145533581 0.0002111066161128353 0.00018264282384244045 0.00045542939340751238 0.00025673187180357763 0.0002051070942449576 0.00054948376974231126 0.00022432830828806384 0.00015484133053514083 0.00044584821712427255 0.00020469244508546222 0.00016411329685498671 0.00045473189145533581 0.00014051947001502798 0.00011541496527643539 0.00031493641850392393 0.00015334823658990119 0.00012505678822994569 0.00031645042750056844 0.00017611550519390997 0.00011285241648675763 0.00035076763001199351 0.00017240003063418374 0.00015026408314511801 0.00041686498704861252 0.00020469244508546222 0.00016411329685498671 0.00045473189145533581 0.00016190820762756658 0.00011886408310226967 0.00035598405792962957 0.00014051947001502798 0.00011541496527643539 0.00031493641850392393 0.00020469244508546222 0.00016411329685498671 0.00045473189145533581 0.00016190820762756658 0.00011886408310226967 0.00035598405792962957 0.00014051947001502798 0.00011541496527643539 0.00031493641850392393 0.00017611550519390997 0.00011285241648675763 0.00035076763001199351 0.00016190820762756658 0.00011886408310226967 0.00035598405792962957 0.00014051947001502798 0.00011541496527643539 0.00031493641850392393 0.00012754099979378681 6.825389878058686e-05 0.00025073668917862372 0.00017611550519390997 0.00011285241648675763 0.00035076763001199351 0.00016190820762756658 0.00011886408310226967 0.00035598405792962957 0.00012817132302672156 9.9274838560505809e-05 0.00030710510848100717 0.00014051947001502798 0.00011541496527643539 0.00031493641850392393 0.00012754099979378681 6.825389878058686e-05 0.00025073668917862372 0.00017240003063418374 0.00015026408314511801 0.00041686498704861252 0.00016190820762756658 0.00011886408310226967 0.00035598405792962957 0.00012817132302672156 9.9274838560505809e-05 0.00030710510848100717 0.00014051947001502798 0.00011541496527643539 0.00031493641850392393 0.00013939923556919405 0.00014184539023999381 0.00036621365978326204 0.00012817132302672156 9.9274838560505809e-05 0.00030710510848100717 0.00014051947001502798 0.00011541496527643539 0.00031493641850392393 0.00010393599026489725 0.000106103473606814 0.00027553245293279152 0.00013939923556919405 0.00014184539023999381 0.00036621365978326204 0.00017240003063418374 0.00015026408314511801 0.00041686498704861252 0.00012817132302672156 9.9274838560505809e-05 0.00030710510848100717 0.00014051947001502798 0.00011541496527643539 0.00031493641850392393 0.00013939923556919405 0.00014184539023999381 0.00036621365978326204 0.00017240003063418374 0.00015026408314511801 0.00041686498704861252 0.00014051947001502798 0.00011541496527643539 0.00031493641850392393 0.00014583194096998999 0.00015259117460372505 0.00036477088254433394 0.00012817132302672156 9.9274838560505809e-05 0.00030710510848100717 0.00010946012864574854 8.5366736648005164e-05 0.00024786860383869757 0.00014051947001502798 0.00011541496527643539 0.00031493641850392393 0.00010393599026489725 0.000106103473606814 0.00027553245293279152 0.00010946012864574854 8.5366736648005164e-05 0.00024786860383869757 0.00014051947001502798 0.00011541496527643539 0.00031493641850392393 0.00010089865147298002 6.5133007949687093e-05 0.00019612323430571608 0.00012754099979378681 6.825389878058686e-05 0.00025073668917862372 0.00012817132302672156 9.9274838560505809e-05 0.00030710510848100717 0.00010946012864574854 8.5366736648005164e-05 0.00024786860383869757 0.00014051947001502798 0.00011541496527643539 0.00031493641850392393 0.00012754099979378681 6.825389878058686e-05 0.00025073668917862372 0.00014051947001502798 0.00011541496527643539 0.00031493641850392393 0.00011144768149703793 0.00011533130351159986 0.00025850100037607998 0.00015334823658990119 0.00012505678822994569 0.00031645042750056844 0.00010089865147298002 6.5133007949687093e-05 0.00019612323430571608 0.00014051947001502798 0.00011541496527643539 0.00031493641850392393 8.6254895835470683e-05 8.7665115842069832e-05 0.00021002077833596482 0.00011144768149703793 0.00011533130351159986 0.00025850100037607998 0.00014583194096998999 0.00015259117460372505 0.00036477088254433394 0.00014051947001502798 0.00011541496527643539 0.00031493641850392393 8.6254895835470683e-05 8.7665115842069832e-05 0.00021002077833596482 0.00011144768149703793 0.00011533130351159986 0.00025850100037607998 0.00010089865147298002 6.5133007949687093e-05 0.00019612323430571608 0.00010946012864574854 8.5366736648005164e-05 0.00024786860383869757 0.00014051947001502798 0.00011541496527643539 0.00031493641850392393 0.00010393599026489725 0.000106103473606814 0.00027553245293279152 8.6254895835470683e-05 8.7665115842069832e-05 0.00021002077833596482 0.00010946012864574854 8.5366736648005164e-05 0.00024786860383869757 0.00014051947001502798 0.00011541496527643539 0.00031493641850392393 8.6254895835470683e-05 8.7665115842069832e-05 0.00021002077833596482 0.00010089865147298002 6.5133007949687093e-05 0.00019612323430571608 0.00013939923556919405 0.00014184539023999381 0.00036621365978326204 0.00014051947001502798 0.00011541496527643539 0.00031493641850392393 0.00010393599026489725 0.000106103473606814 0.00027553245293279152 0.00014583194096998999 0.00015259117460372505 0.00036477088254433394 0.00014051947001502798 0.00011541496527643539 0.00031493641850392393 0.00010393599026489725 0.000106103473606814 0.00027553245293279152 8.6254895835470683e-05 8.7665115842069832e-05 0.00021002077833596482 0.00014583194096998999 0.00015259117460372505 0.00036477088254433394 0.00010393599026489725 0.000106103473606814 0.00027553245293279152 8.6254895835470683e-05 8.7665115842069832e-05 0.00021002077833596482 0.00014583194096998999 0.00015259117460372505 0.00036477088254433394 8.3093893754892048e-05 0.00011160352312838371 0.00024814924674054279 8.6254895835470683e-05 8.7665115842069832e-05 0.00021002077833596482 0.00011128557228669301 0.00014760076229788159 0.00031019195749193055 8.3093893754892048e-05 0.00011160352312838371 0.00024814924674054279 6.2531441641587736e-05 0.00010421766107469253 0.00019805064358875978 8.6254895835470683e-05 8.7665115842069832e-05 0.00021002077833596482 0.00011144768149703793 0.00011533130351159986 0.00025850100037607998 0.00014583194096998999 0.00015259117460372505 0.00036477088254433394 0.00011128557228669301 0.00014760076229788159 0.00031019195749193055 8.6254895835470683e-05 8.7665115842069832e-05 0.00021002077833596482 0.00014583194096998999 0.00015259117460372505 0.00036477088254433394 0.00011128557228669301 0.00014760076229788159 0.00031019195749193055 8.3093893754892048e-05 0.00011160352312838371 0.00024814924674054279 8.6254895835470683e-05 8.7665115842069832e-05 0.00021002077833596482 0.00011144768149703793 0.00011533130351159986 0.00025850100037607998 0.00011128557228669301 0.00014760076229788159 0.00031019195749193055 6.2531441641587736e-05 0.00010421766107469253 0.00019805064358875978 8.6254895835470683e-05 8.7665115842069832e-05 0.00021002077833596482 0.00011144768149703793 0.00011533130351159986 0.00025850100037607998 5.8085247024304959e-05 7.5719528729627502e-05 0.00013828042436782564 7.4414480566395349e-05 5.8803864798665539e-05 0.00013692357956517439 0.00015953678558021736 0.00016851137350395946 0.00037138200612499587 0.00014583194096998999 0.00015259117460372505 0.00036477088254433394 0.0002111066161128353 0.00018264282384244045 0.00045542939340751238 0.00015334823658990119 0.00012505678822994569 0.00031645042750056844 0.00020469244508546222 0.00016411329685498671 0.00045473189145533581 0.00014583194096998999 0.00015259117460372505 0.00036477088254433394 0.0002111066161128353 0.00018264282384244045 0.00045542939340751238 0.00015334823658990119 0.00012505678822994569 0.00031645042750056844 0.00011144768149703793 0.00011533130351159986 0.00025850100037607998 0.00015953678558021736 0.00016851137350395946 0.00037138200612499587 0.00014583194096998999 0.00015259117460372505 0.00036477088254433394 0.00015334823658990119 0.00012505678822994569 0.00031645042750056844 0.00011144768149703793 0.00011533130351159986 0.00025850100037607998 0.00015953678558021736 0.00016851137350395946 0.00037138200612499587 0.00010586156961884541 0.00011472558200149165 0.00022972656054976481 0.00015334823658990119 0.00012505678822994569 0.00031645042750056844 0.00014051947001502798 0.00011541496527643539 0.00031493641850392393 0.00011144768149703793 0.00011533130351159986 0.00025850100037607998 0.00014583194096998999 0.00015259117460372505 0.00036477088254433394 0.00015334823658990119 0.00012505678822994569 0.00031645042750056844 0.00015953678558021736 0.00016851137350395946 0.00037138200612499587 0.00014583194096998999 0.00015259117460372505 0.00036477088254433394 0.00020556631153487298 0.00020807948203393952 0.00050289434706959554 0.00016571811914452102 0.00020121622469028059 0.00043187517312673812 0.00015953678558021736 0.00016851137350395946 0.00037138200612499587 0.00014583194096998999 0.00015259117460372505 0.00036477088254433394 0.00020556631153487298 0.00020807948203393952 0.00050289434706959554 0.0002111066161128353 0.00018264282384244045 0.00045542939340751238 0.00015953678558021736 0.00016851137350395946 0.00037138200612499587 0.00014583194096998999 0.00015259117460372505 0.00036477088254433394 0.00016571811914452102 0.00020121622469028059 0.00043187517312673812 0.00011128557228669301 0.00014760076229788159 0.00031019195749193055 0.00011144768149703793 0.00011533130351159986 0.00025850100037607998 0.00015953678558021736 0.00016851137350395946 0.00037138200612499587 0.00014583194096998999 0.00015259117460372505 0.00036477088254433394 0.00011128557228669301 0.00014760076229788159 0.00031019195749193055 0.00014583194096998999 0.00015259117460372505 0.00036477088254433394 0.00016571811914452102 0.00020121622469028059 0.00043187517312673812 0.00016329204892069824 0.00020732676329804066 0.00045742543965038843 0.00011128557228669301 0.00014760076229788159 0.00031019195749193055 0.00016329204892069824 0.00020732676329804066 0.00045742543965038843 0.00011607269141593919 0.0001632574666190033 0.00035477056845535833 0.00011128557228669301 0.00014760076229788159 0.00031019195749193055 0.00010687841289594798 0.00017448239584136939 0.00034261755342711157 0.00016571811914452102 0.00020121622469028059 0.00043187517312673812 0.00016329204892069824 0.00020732676329804066 0.00045742543965038843 0.00011128557228669301 0.00014760076229788159 0.00031019195749193055 0.00010687841289594798 0.00017448239584136939 0.00034261755342711157 0.00014583194096998999 0.00015259117460372505 0.00036477088254433394 0.00016329204892069824 0.00020732676329804066 0.00045742543965038843 0.00011607269141593919 0.0001632574666190033 0.00035477056845535833 0.00011128557228669301 0.00014760076229788159 0.00031019195749193055 0.00013939923556919405 0.00014184539023999381 0.00036621365978326204 0.00017938103657924443 0.00018197903381017737 0.00045522145285538395 0.00014583194096998999 0.00015259117460372505 0.00036477088254433394 0.00014791100857736993 0.00017440137344980924 0.00041672239756610185 0.00017938103657924443 0.00018197903381017737 0.00045522145285538395 0.00014583194096998999 0.00015259117460372505 0.00036477088254433394 0.00016329204892069824 0.00020732676329804066 0.00045742543965038843 0.00014791100857736993 0.00017440137344980924 0.00041672239756610185 0.00014583194096998999 0.00015259117460372505 0.00036477088254433394 0.00016329204892069824 0.00020732676329804066 0.00045742543965038843 0.00014791100857736993 0.00017440137344980924 0.00041672239756610185 0.00011607269141593919 0.0001632574666190033 0.00035477056845535833 0.00017938103657924443 0.00018197903381017737 0.00045522145285538395 0.00014583194096998999 0.00015259117460372505 0.00036477088254433394 0.00020556631153487298 0.00020807948203393952 0.00050289434706959554 0.00016329204892069824 0.00020732676329804066 0.00045742543965038843 0.00019287079967166183 0.00021316403646413009 0.00051328738553341983 0.00017938103657924443 0.00018197903381017737 0.00045522145285538395 0.00020556631153487298 0.00020807948203393952 0.00050289434706959554 0.00016329204892069824 0.00020732676329804066 0.00045742543965038843 0.00019287079967166183 0.00021316403646413009 0.00051328738553341983 0.00020556631153487298 0.00020807948203393952 0.00050289434706959554 0.00016329204892069824 0.00020732676329804066 0.00045742543965038843 0.00022640950390191245 0.00025286715653798851 0.00058956968045765438 0.00014583194096998999 0.00015259117460372505 0.00036477088254433394 0.00020556631153487298 0.00020807948203393952 0.00050289434706959554 0.00016571811914452102 0.00020121622469028059 0.00043187517312673812 0.00016329204892069824 0.00020732676329804066 0.00045742543965038843 0.00020556631153487298 0.00020807948203393952 0.00050289434706959554 0.00016571811914452102 0.00020121622469028059 0.00043187517312673812 0.00016329204892069824 0.00020732676329804066 0.00045742543965038843 0.00022640950390191245 0.00025286715653798851 0.00058956968045765438 0.00016571811914452102 0.00020121622469028059 0.00043187517312673812 0.00016329204892069824 0.00020732676329804066 0.00045742543965038843 0.00015338964309032324 0.0002248163071127201 0.00044661020569071794 0.00020437743317903059 0.00025728217755046045 0.00055145578082931392 0.00019287079967166183 0