<?xml version="1.0"?>
<VTKFile type="UnstructuredGrid" version="0.1" byte_order="LittleEndian">
<UnstructuredGrid>
<Piece NumberOfPoints="23284" NumberOfCells="5821">
<Points>
<DataArray type="Float64" NumberOfComponents="3" format="ascii">
0.0038256098144006869 0.0041400759042262009 0.0039854622984236152 0.0050000000000000001 0.0050000000000000001 0 0.007850875913509971 0.005381679503114206 0.0037846524567980611 0.01459658547112015 0.02963818693411439 0.01348159639352434 0 0 0.0050000000000000001 0 0.0050000000000000001 0.0050000000000000001 0.0025000000000000001 0.0025000000000000001 0.067187500000176273 0 0 0.12937500000035251 0.0025000000000000001 0.0025000000000000001 0.035993247487525602 0.01335482532982827 0.061921935510367468 0.031596396334779613 0.053495808280144469 0.082973914578683722 0.047312437411078337 0 0.0736402080526046 0.073773792303481078 0.056489871231288402 0.0025000000000000001 0.0025000000000000001 0.045799116620837459 0.028040759187074001 0.036821396352863953 0.0025000000000000001 0.0025000000000000001 0.035993247487525602 0.0025000000000000001 0.0025000000000000001 0.067187500000176273 0 0.0050000000000000001 0.0050000000000000001 0.0095042730786282278 0.0082759167994670979 0.0082480707199308924 0.0045817963841059857 0.0043364158334714669 0.009473343555270677 0.01335482532982827 0.061921935510367468 0.031596396334779613 0.045799116620837459 0.028040759187074001 0.036821396352863953 0.0025000000000000001 0.0025000000000000001 0.035993247487525602 0.053495808280144469 0.082973914578683722 0.047312437411078337 0.0025000000000000001 0.0025000000000000001 0.067187500000176273 0.056489871231288402 0.0025000000000000001 0.0025000000000000001 0.045799116620837459 0.028040759187074001 0.036821396352863953 0.073626545880309466 0 0.073777028331958816 0.0025000000000000001 0.0025000000000000001 0.067187500000176273 0.045799116620837459 0.028040759187074001 0.036821396352863953 0.053495808280144469 0.082973914578683722 0.047312437411078337 0.073626545880309466 0 0.073777028331958816 0.0025000000000000001 0.0025000000000000001 0.067187500000176273 0.056489871231288402 0.0025000000000000001 0.0025000000000000001 0.045799116620837459 0.028040759187074001 0.036821396352863953 0.073580292400886219 0.073580292401008413 0 0.073626545880309466 0 0.073777028331958816 0.045799116620837459 0.028040759187074001 0.036821396352863953 0.053495808280144469 0.082973914578683722 0.047312437411078337 0.073580292400886219 0.073580292401008413 0 0.073626545880309466 0 0.073777028331958816 0 0 0 0 0.0025000000000000001 0.0025000000000000001 0.0025000000000000001 0.0025000000000000001 0 0.0025000000000000001 0 0.0025000000000000001 0 0 0.0050000000000000001 0 0.0050000000000000001 0.0050000000000000001 0.0025000000000000001 0.0025000000000000001 0.035993247487525602 0.0025000000000000001 0.0025000000000000001 0.067187500000176273 0.010477667344183201 0.01284643002126089 0.00012275481760709659 0.007850875913509971 0.005381679503114206 0.0037846524567980611 0.0095042730786282278 0.0082759167994670979 0.0082480707199308924 0.01459658547112015 0.02963818693411439 0.01348159639352434 0.0050000000000000001 0.0050000000000000001 0 0.010477667344183201 0.01284643002126089 0.00012275481760709659 0.007850875913509971 0.005381679503114206 0.0037846524567980611 0.01459658547112015 0.02963818693411439 0.01348159639352434 0.0038256098144006869 0.0041400759042262009 0.0039854622984236152 0.007850875913509971 0.005381679503114206 0.0037846524567980611 0.0095042730786282278 0.0082759167994670979 0.0082480707199308924 0.01459658547112015 0.02963818693411439 0.01348159639352434 0 0 0 0 0.0025000000000000001 0.0025000000000000001 0.0025000000000000001 0.0025000000000000001 0 0 0.0050000000000000001 0 0.010477667344183201 0.01284643002126089 0.00012275481760709659 0.0095042730786282278 0.0082759167994670979 0.0082480707199308924 0.01459658547112015 0.02963818693411439 0.01348159639352434 0.034373062133854368 0.040091712813656893 0.017906843810535381 0.0050000000000000001 0 0.0050000000000000001 0 0 0.0050000000000000001 0.0025000000000000001 0.0025000000000000001 0.067187500000176273 0 0 0.12937500000035251 0.0095042730786282278 0.0082759167994670979 0.0082480707199308924 0.0025000000000000001 0.0025000000000000001 0.02029496691504501 0.045799116620837459 0.028040759187074001 0.036821396352863953 0.034373062133854368 0.040091712813656893 0.017906843810535381 0.0050000000000000001 0 0.0050000000000000001 0.0045817963841059857 0.0043364158334714669 0.009473343555270677 0.0025000000000000001 0.0025000000000000001 0.02029496691504501 0.056489871231288402 0.0025000000000000001 0.0025000000000000001 0.0050000000000000001 0 0.0050000000000000001 0.0045817963841059857 0.0043364158334714669 0.009473343555270677 0.028851790063782669 0.0025000000000000001 0.0025000000000000001 0.056489871231288402 0.0025000000000000001 0.0025000000000000001 0.0095042730786282278 0.0082759167994670979 0.0082480707199308924 0.0045817963841059857 0.0043364158334714669 0.009473343555270677 0.0025000000000000001 0.0025000000000000001 0.02029496691504501 0.056489871231288402 0.0025000000000000001 0.0025000000000000001 0.0095042730786282278 0.0082759167994670979 0.0082480707199308924 0.0045817963841059857 0.0043364158334714669 0.009473343555270677 0.028851790063782669 0.0025000000000000001 0.0025000000000000001 0.056489871231288402 0.0025000000000000001 0.0025000000000000001 0.0095042730786282278 0.0082759167994670979 0.0082480707199308924 0.0025000000000000001 0.0025000000000000001 0.02029496691504501 0.056489871231288402 0.0025000000000000001 0.0025000000000000001 0.045799116620837459 0.028040759187074001 0.036821396352863953 0 0.0050000000000000001 0.0050000000000000001 0 0.0050000000000000001 0 0.016153278899017791 0.044583689206717327 0.01563807923371947 0.0025000000000000001 0.056489871231288402 0.0025000000000000001 0.056489871231288402 0.0025000000000000001 0.0025000000000000001 0.045799116620837459 0.028040759187074001 0.036821396352863953 0.034373062133854368 0.040091712813656893 0.017906843810535381 0.073580292400886219 0.073580292401008413 0 0.028851790063782669 0.0025000000000000001 0.0025000000000000001 0.056489871231288402 0.0025000000000000001 0.0025000000000000001 0.034373062133854368 0.040091712813656893 0.017906843810535381 0.073580292400886219 0.073580292401008413 0 0.0050000000000000001 0 0 0.0050000000000000001 0 0.0050000000000000001 0.056489871231288402 0.0025000000000000001 0.0025000000000000001 0.128749999999761 0 0 0.0095042730786282278 0.0082759167994670979 0.0082480707199308924 0.0045817963841059857 0.0043364158334714669 0.009473343555270677 0.0025000000000000001 0.0025000000000000001 0.02029496691504501 0.01335482532982827 0.061921935510367468 0.031596396334779613 0 0.0050000000000000001 0.0050000000000000001 0.0025000000000000001 0.0025000000000000001 0.02029496691504501 0.0025000000000000001 0.0025000000000000001 0.035993247487525602 0.01335482532982827 0.061921935510367468 0.031596396334779613 0 0.0050000000000000001 0.0050000000000000001 0.0038256098144006869 0.0041400759042262009 0.0039854622984236152 0 0.0050000000000000001 0 0.01459658547112015 0.02963818693411439 0.01348159639352434 0.0050000000000000001 0 0 0.0050000000000000001 0.0050000000000000001 0 0.013289992014046129 0.0065291354129584592 0.0037710740372293499 0.007850875913509971 0.005381679503114206 0.0037846524567980611 0.0050000000000000001 0 0 0.0050000000000000001 0.0050000000000000001 0 0.056489871231288402 0.0025000000000000001 0.0025000000000000001 0.128749999999761 0 0 0.0025000000000000001 0.0025000000000000001 0.035993247487525602 0.053495808280144469 0.082973914578683722 0.047312437411078337 0 0.0736402080526046 0.073773792303481078 0.0025000000000000001 0.0025000000000000001 0.067187500000176273 0.0050000000000000001 0 0 0.0050000000000000001 0.0050000000000000001 0 0.013289992014046129 0.0065291354129584592 0.0037710740372293499 0.028851790063782669 0.0025000000000000001 0.0025000000000000001 0.0050000000000000001 0.0050000000000000001 0 0.010477667344183201 0.01284643002126089 0.00012275481760709659 0.013289992014046129 0.0065291354129584592 0.0037710740372293499 0.028851790063782669 0.0025000000000000001 0.0025000000000000001 0.0050000000000000001 0 0 0.0050000000000000001 0.0050000000000000001 0 0.028851790063782669 0.0025000000000000001 0.0025000000000000001 0.056489871231288402 0.0025000000000000001 0.0025000000000000001 0.0050000000000000001 0.0050000000000000001 0 0 0.0050000000000000001 0 0.0025000000000000001 0.056489871231288402 0.0025000000000000001 0 0.12875000000032791 0 0.0050000000000000001 0.0050000000000000001 0 0.010477667344183201 0.01284643002126089 0.00012275481760709659 0.0025000000000000001 0.056489871231288402 0.0025000000000000001 0 0.12875000000032791 0 0.0050000000000000001 0.0050000000000000001 0 0 0.0050000000000000001 0 0.01459658547112015 0.02963818693411439 0.01348159639352434 0.016153278899017791 0.044583689206717327 0.01563807923371947 0.0050000000000000001 0.0050000000000000001 0 0.010477667344183201 0.01284643002126089 0.00012275481760709659 0.01459658547112015 0.02963818693411439 0.01348159639352434 0.016153278899017791 0.044583689206717327 0.01563807923371947 0.0050000000000000001 0.0050000000000000001 0 0 0.0050000000000000001 0 0.016153278899017791 0.044583689206717327 0.01563807923371947 0.0025000000000000001 0.056489871231288402 0.0025000000000000001 0.0050000000000000001 0.0050000000000000001 0 0.010477667344183201 0.01284643002126089 0.00012275481760709659 0.016153278899017791 0.044583689206717327 0.01563807923371947 0.0025000000000000001 0.056489871231288402 0.0025000000000000001 0.0050000000000000001 0 0.0050000000000000001 0.056489871231288402 0.0025000000000000001 0.0025000000000000001 0.073626545880309466 0 0.073777028331958816 0.0025000000000000001 0.0025000000000000001 0.067187500000176273 0.0025000000000000001 0.0025000000000000001 0.02029496691504501 0.045799116620837459 0.028040759187074001 0.036821396352863953 0
[...]
<PointData Scalars="" Vectors="displacement," Tensors="">
<DataArray type="Float64" Name="displacement" NumberOfComponents="3" format="ascii">
28414569.002790455 63935292.768985994 23253658.075321738 28447282.306048557 64015176.570232354 23280533.698274355 28434315.065561242 63879416.515098885 23303993.042881154 28752675.141070008 63540015.679018781 23931522.372328613 28347018.268349703 63968221.916361429 23133315.824252106 28422535.268350553 63968222.010733932 23255786.36193471 28076978.660946619 62407236.621391177 23206924.286794398 27731422.083928678 60921768.257252544 23133314.631548386 28231375.257263947 63171311.672943898 23206924.63159081 29150609.480753545 63115064.88886907 24716137.929970995 29390778.677922238 62123850.075674228 25430465.094048589 29118837.475991029 62283670.448756635 24937066.506273102 28397149.93596201 63176269.325150385 23474147.272808649 28613027.717862554 62497064.492000923 24046831.409226295 28231375.257263947 63171311.672943898 23206924.63159081 28076978.660946619 62407236.621391177 23206924.286794398 28422535.268350553 63968222.010733932 23255786.36193471 28455936.215318441 63745116.966721736 23383068.241579987 28390372.098215614 63789450.806643315 23262210.033303253 29150609.480753545 63115064.88886907 24716137.929970995 28613027.717862554 62497064.492000923 24046831.409226295 28231375.257263947 63171311.672943898 23206924.63159081 29390778.677922238 62123850.075674228 25430465.094048589 28076978.660946619 62407236.621391177 23206924.286794398 28397149.93596201 63176269.325150385 23474147.272808649 28613027.717862554 62497064.492000923 24046831.409226295 28006604.916548774 61171580.90434058 23497729.468629599 28076978.660946619 62407236.621391177 23206924.286794398 28613027.717862554 62497064.492000923 24046831.409226295 29390778.677922238 62123850.075674228 25430465.094048589 28006604.916548774 61171580.90434058 23497729.468629599 28076978.660946619 62407236.621391177 23206924.286794398 28397149.93596201 63176269.325150385 23474147.272808649 28613027.717862554 62497064.492000923 24046831.409226295 29483076.237558357 62979382.591824383 25299784.911492553 28006604.916548774 61171580.90434058 23497729.468629599 28613027.717862554 62497064.492000923 24046831.409226295 29390778.677922238 62123850.075674228 25430465.094048589 29483076.237558357 62979382.591824383 25299784.911492553 28006604.916548774 61171580.90434058 23497729.468629599 28371765.929421619 64090692.065191716 23133315.77067088 28397150.437290434 64029456.912853204 23194551.050942168 28409524.087152496 64052934.075221442 23206925.260862708 28359391.975727975 63991698.295515828 23145689.857462294 28347018.268349703 63968221.916361429 23133315.824252106 28422535.268350553 63968222.010733932 23255786.36193471 28231375.257263947 63171311.672943898 23206924.63159081 28076978.660946619 62407236.621391177 23206924.286794398 28565182.322437067 63929438.572124846 23499836.720686391 28434315.065561242 63879416.515098885 23303993.042881154 28455936.215318441 63745116.966721736 23383068.241579987 28752675.141070008 63540015.679018781 23931522.372328613 28447282.306048557 64015176.570232354 23280533.698274355 28565182.322437067 63929438.572124846 23499836.720686391 28434315.065561242 63879416.515098885 23303993.042881154 28752675.141070008 63540015.679018781 23931522.372328613 28414569.002790455 63935292.768985994 23253658.075321738 28434315.065561242 63879416.515098885 23303993.042881154 28455936.215318441 63745116.966721736 23383068.241579987 28752675.141070008 63540015.679018781 23931522.372328613 28371765.929421619 64090692.065191716 23133315.77067088 28397150.437290434 64029456.912853204 23194551.050942168 28409524.087152496 64052934.075221442 23206925.260862708 28447282.572267719 64090692.930551983 23255786.35398744 28565182.322437067 63929438.572124846 23499836.720686391 28455936.215318441 63745116.966721736 23383068.241579987 28752675.141070008 63540015.679018781 23931522.372328613 28888655.680592991 63132931.664543986 24285455.68608591 28347018.228314944 63892704.938118026 23158063.272991873 28347018.268349703 63968221.916361429 23133315.824252106 28076978.660946619 62407236.621391177 23206924.286794398 27731422.083928678 60921768.257252544 23133314.631548386 28455936.215318441 63745116.966721736 23383068.241579987 28309074.142219994 63555826.839631923 23206924.709750049 28613027.717862554 62497064.492000923 24046831.409226295 28888655.680592991 63132931.664543986 24285455.68608591 28347018.228314944 63892704.938118026 23158063.272991873 28390372.098215614 63789450.806643315 23262210.033303253 28309074.142219994 63555826.839631923 23206924.709750049 28397149.93596201 63176269.325150385 23474147.272808649 28347018.228314944 63892704.938118026 23158063.272991873 28390372.098215614 63789450.806643315 23262210.033303253 28397150.063111324 63593698.128625751 23337352.731411461 28397149.93596201 63176269.325150385 23474147.272808649 28455936.215318441 63745116.966721736 23383068.241579987 28390372.098215614 63789450.806643315 23262210.033303253 28309074.142219994 63555826.839631923 23206924.709750049 28397149.93596201 63176269.325150385 23474147.272808649 28455936.215318441 63745116.966721736 23383068.241579987 28390372.098215614 63789450.806643315 23262210.033303253 28397150.063111324 63593698.128625751 23337352.731411461 28397149.93596201 63176269.325150385 23474147.272808649 28455936.215318441 63745116.966721736 23383068.241579987 28309074.142219994 63555826.839631923 23206924.709750049 28397149.93596201 63176269.325150385 23474147.272808649 28613027.717862554 62497064.492000923 24046831.409226295 28422535.268350553 63968222.010733932 23255786.36193471 28447282.572267719 64090692.930551983 23255786.35398744 28967729.107324194 63463683.418735258 24305303.970183566 29212579.773362823 63991699.878766574 24529358.561215188 28397149.93596201 63176269.325150385 23474147.272808649 28613027.717862554 62497064.492000923 24046831.409226295 28888655.680592991 63132931.664543986 24285455.68608591 29483076.237558357 62979382.591824383 25299784.911492553 28397150.063111324 63593698.128625751 23337352.731411461 28397149.93596201 63176269.325150385 23474147.272808649 28888655.680592991 63132931.664543986 24285455.68608591 29483076.237558357 62979382.591824383 25299784.911492553 28371765.544348933 64015176.262778535 23158063.082419466 28347018.228314944 63892704.938118026 23158063.272991873 28397149.93596201 63176269.325150385 23474147.272808649 28371764.70183751 62146132.550265469 23770563.094825346 28455936.215318441 63745116.966721736 23383068.241579987 28390372.098215614 63789450.806643315 23262210.033303253 28309074.142219994 63555826.839631923 23206924.709750049 29150609.480753545 63115064.88886907 24716137.929970995 28422535.268350553 63968222.010733932 23255786.36193471 28309074.142219994 63555826.839631923 23206924.709750049 28231375.257263947 63171311.672943898 23206924.63159081 29150609.480753545 63115064.88886907 24716137.929970995 28422535.268350553 63968222.010733932 23255786.36193471 28414569.002790455 63935292.768985994 23253658.075321738 28447282.572267719 64090692.930551983 23255786.35398744 28752675.141070008 63540015.679018781 23931522.372328613 28371765.544348933 64015176.262778535 23158063.082419466 28447282.306048557 64015176.570232354 23280533.698274355 28451712.637539174 63797600.075783379 23359019.805816066 28434315.065561242 63879416.515098885 23303993.042881154 28371765.544348933 64015176.262778535 23158063.082419466 28447282.306048557 64015176.570232354 23280533.698274355 28397149.93596201 63176269.325150385 23474147.272808649 28371764.70183751 62146132.550265469 23770563.094825346 28231375.257263947 63171311.672943898 23206924.63159081 29390778.677922238 62123850.075674228 25430465.094048589 29118837.475991029 62283670.448756635 24937066.506273102 28076978.660946619 62407236.621391177 23206924.286794398 28371765.544348933 64015176.262778535 23158063.082419466 28447282.306048557 64015176.570232354 23280533.698274355 28451712.637539174 63797600.075783379 23359019.805816066 28397150.063111324 63593698.128625751 23337352.731411461 28447282.306048557 64015176.570232354 23280533.698274355 28565182.322437067 63929438.572124846 23499836.720686391 28451712.637539174 63797600.075783379 23359019.805816066 28397150.063111324 63593698.128625751 23337352.731411461 28371765.544348933 64015176.262778535 23158063.082419466 28447282.306048557 64015176.570232354 23280533.698274355 28397150.063111324 63593698.128625751 23337352.731411461 28397149.93596201 63176269.325150385 23474147.272808649 28447282.306048557 64015176.570232354 23280533.698274355 28447282.572267719 64090692.930551983 23255786.35398744 29212579.773362823 63991699.878766574 24529358.561215188 30316325.53555372 64090694.258956119 26286932.408707675 28447282.306048557 64015176.570232354 23280533.698274355 28565182.322437067 63929438.572124846 23499836.720686391 29212579.773362823 63991699.878766574 24529358.561215188 30316325.53555372 64090694.258956119 26286932.408707675 28447282.306048557 64015176.570232354 23280533.698274355 28447282.572267719 64090692.930551983 23255786.35398744 28752675.141070008 63540015.679018781 23931522.372328613 28967729.107324194 63463683.418735258 24305303.970183566 28447282.306048557 64015176.570232354 23280533.698274355 28565182.322437067 63929438.572124846 23499836.720686391 28752675.141070008 63540015.679018781 23931522.372328613 28967729.107324194 63463683.418735258 24305303.970183566 28447282.306048557 64015176.570232354 23280533.698274355 28447282.572267719 64090692.930551983 23255786.35398744 28967729.107324194 63463683.418735258 24305303.970183566 29212579.773362823 63991699.878766574 24529358.561215188 28447282.306048557 64015176.570232354 23280533.698274355 28565182.322437067 63929438.572124846 23499836.720686391 28967729.107324194 63463683.418735258 24305303.970183566 29212579.773362823 63991699.878766574 24529358.561215188 28347018.228314944 63892704.938118026 23158063.272991873 28397149.93596201 63176269.325150385 23474147.272808649 28006604.916548774 61171580.90434058 23497729.468629599 28076978.660946619 62407236.621391177 23206924.286794398 28309074.142219994 63555826.839631923 23206924.709750049 28613027.717862554 62497064.492000923 24046831.409226295 28231375.257263947 63171311.672943898 23206924.63159081 28888655.680592991 63132931.664543986 24285455.68608591 28347018.228314944 63892704.938118026 23158063.272991873 28397149.93596201 63176269.325150385 23474147.272808649 28231375.257263947 63171311.672943898 23206924.63159081 28076978.660946619 62407236.621391177 23206924.286794398 28422535.268350553 63968222.010733932 23255786.36193471 28455936.215318441 63745116.966721736 23383068.241579987 28752675.141070008 63540015.679018781 23931522.372328613 29150609.480753545 63115064.88886907 24716137.929970995 28422535.268350553 63968222.010733932 23255786.36193471 28231375.257263947 63171311.672943898 23206924.63159081 29118837.475991029 62283670.448756635 24937066.506273102 28076978.660946619 62407236.621391177 23206924.286794398 28422535.268350553 63968222.010733932 23255786.36193471 28231375.257263947 63171311.672943898 23206924.63159081 29150609.480753545 63115064.88886907 24716137.929970995 29118837.475991029 62283670.448756635 24937066.506273102 28422535.268350553 63968222.010733932 23255786.36193471 28390372.098215614 63789450.806643315 23262210.033303253 28309074.142219994 63555826.839631923 23206924.709750049 29150609.480753545 63115064.88886907 24716137.929970995 28414569.002790455 63935292.768985994 23253658.075321738 28447282.306048557 64015176.570232354 23280533.698274355 28447282.572267719 64090692.930551983 23255786.35398744 28752675.141070008 63540015.679018781 23931522.372328613 28451712.637539174 63797600.075783379 23359019.805816066 28455936.215318441 63745116.966721736 23383068.241579987 28397150.063111324 63593698.128625751 23337352.731411461 28888655.680592991 63132931.664543986 24285455.68608591 28613027.717862554 62497064.492000923 24046831.409226295 28231375.257263947 63171311.672943898 23206924.63159081 28888655.680592991 63132931.664543986 24285455.68608591 29390778.677922238 62123850.075674228 25430465.094048589 28371765.929421619 64090692.065191716 23133315.77067088 28409524.087152496 64052934.075221442 23206925.260862708 28359391.975727975 63991698.295515828 23145689.857462294 28371765.544348933 64015176.262778535 23158063.082419466 28231375.257263947 63171311.672943898 23206924.63159081 29150609.480753545 63115064.88886907 24716137.929970995 28888655.680592991 63132931.664543986 24285455.68608591 29390778.677922238 62123850.075674228 25430465.094048589 28371765.929421619 64090692.065191716 23133315.77067088 28397150.437290434 64029456.912853204 23194551.050942168 28359391.975727975 63991698.295515828 23145689.857462294 28347018.268349703 63968221.916361429 23133315.824252106 28447282.306048557 64015176.570232354 23280533.698274355 28565182.322437067 63929438.572124846 23499836.720686391 28397150.063111324 63593698.128625751 23337352.731411461 29483076.237558357 62979382.591824383 25299784.911492553 28447282.306048557 64015176.570232354 23280533.698274355 28397150.063111324 63593698.128625751 23337352.731411461 28397149.93596201 63176269.325150385 23474147.272808649 29483076.237558357 62979382.591824383 25299784.911492553 28309074.142219994 63555826.839631923 23206924.709750049 28231375.257263947 63171311.672943898 23206924.63159081 29150609.480753545 63115064.88886907 24716137.929970995 28888655.680592991 63132931.664543986 24285455.68608591 28371765.544348933 64015176.262778535 23158063.082419466 28347018.228314944 63892704.938118026 23158063.272991873 28451712.637539174 63797600.075783379 23359019.805816066 28434315.065561242 63879416.515098885 23303993.042881154 28565182.322437067 63929438.572124846 23499836.720686391 28397150.063111324 63593698.128625751 23337352.731411461 29212579.773362823 63991699.878766574 24529358.561215188 29483076.237558357 62979382.591824383 25299784.911492553 28397150.063111324 63593698.128625751 23337352.731411461 28888655.680592991 63132931.664543986 24285455.68608591 29212579.773362823 63991699.878766574 24529358.561215188 29483076.237558357 62979382.591824383 25299784.911492553 28371765.544348933 64015176.262778535 23158063.082419466 28347018.228314944 63892704.938118026 23158063.272991873 28451712.637539174 63797600.075783379 23359019.805816066 28397150.063111324 63593698.128625751 23337352.731411461 28397150.437290434 64029456.912853204 23194551.050942168 28409524.087152496 64052934.075221442 23206925.260862708 28414569.002790455 63935292.768985994 23253658.075321738 28447282.572267719 64090692.930551983 23255786.35398744 28409524.087152496 64052934.075221442 23206925.260862708 28359391.975727975 63991698.295515828 23145689.857462294 28371765.544348933 64015176.262778535 23158063.082419466 28414569.002790455 63935292.768985994 23253658.075321738 28347018.228314944 63892704.938118026 23158063.272991873 28451712.637539174 63797600.075783379 23359019.805816066 28434315.065561242 63879416.515098885 23303993.042881154 28390372.098215614 63789450.806643315 23262210.033303253 28451712.637539174 63797600.075783379 23359019.805816066 28455936.215318441 63745116.966721736 23383068.241579987 28390372.098215614 63789450.806643315 23262210.033303253 28397150.063111324 63593698.128625751 23337352.731411461 28447282.306048557 64015176.570232354 23280533.698274355 28565182.322437067 63929438.572124846 23499836.720686391 29483076.237558357 62979382.591824383 25299784.911492553 30316325.53555372 64090694.258956119 26286932.408707675 28347018.228314944 63892704.938118026 23158063.272991873 28451712.637539174 63797600.075783379 23359019.805816066 28390372.098215614 63789450.806643315 23262210.033303253 28397150.063111324 63593698.128625751 23337352.731411461 28422535.268350553 63968222.010733932 23255786.36193471 28447282.572267719 64090692.930551983 23255786.35398744 28752675.141070008 63540015.679018781 23931522.372328613 28967729.107324194 63463683.418735258 24305303.970183566 28565182.322437067 63929438.572124846 23499836.720686391 28451712.637539174 63797600.075783379 23359019.805816066 28455936.215318441 63745116.966721736 23383068.241579987 28888655.680592991 63132931.664543986 24285455.68608591 28397150.437290434 64029456.912853204 23194551.050942168 28359391.975727975 63991698.295515828 23145689.857462294 28347018.268349703 63968221.916361429 23133315.824252106 28414569.002790455 63935292.768985994 23253658.075321738 28371765.544348933 64015176.262778535 23158063.082419466 28347018.228314944 63892704.938118026 23158063.272991873 28397150.063111324 63593698.128625751 23337352.731411461 28397149.93596201 63176269.325150385 23474147.272808649 28347018.228314944 63892704.938118026 23158063.272991873 28309074.142219994 63555826.839631923 23206924.709750049 28397149.93596201 63176269.325150385 23474147.272808649 28231375.257263947 63171311.672943898 23206924.63159081 28422535.268350553 63968222.010733932 23255786.36193471 28447282.572267719 64090692.930551983 23255786.35398744 29212579.773362823 63991699.878766574 24529358.561215188 30316325.53555372 64090694.258956119 26286932.408707675 28455936.215318441 63745116.966721736 23383068.241579987 28309074.142219994 63555826.839631923 23206924.709750049 29150609.480753545 63115064.88886907 24716137.929970995 28888655.680592991 63132931.664543986 24285455.68608591 28309074.142219994 63555826.839631923 23206924.709750049 28397149.93596201 63176269.325150385 23474147.272808649 28613027.717862554 62497064.492000923 24046831.409226295 28231375.257263947 63171311.672943898 23206924.63159081 28565182.322437067 63929438.572124846 23499836.720686391 28397150.063111324 63593698.128625751 23337352.731411461 28888655.680592991 63132931.664543986 24285455.68608591 29212579.773362823 63991699.878766574 24529358.561215188 28422535.268350553 63968222.010733932 23255786.36193471 28414569.002790455 63935292.768985994 23253658.075321738 28455936.215318441 63745116.966721736 23383068.241579987 28752675.141070008 63540015.679018781 23931522.372328613 28565182.322437067 63929438.572124846 23499836.720686391 28451712.637539174 63797600.075783379 23359019.805816066 28397150.063111324 63593698.128625751 23337352.731411461 28888655.680592991 63132931.664543986 24285455.68608591 28422535.268350553 63968222.010733932 23255786.36193471 28414569.002790455 63935292.768985994 23253658.075321738 28455936.215318441 63745116.966721736 23383068.241579987 28390372.098215614 63789450.806643315 23262210.033303253 28347018.228314944 63892704.938118026 23158063.272991873 28347018.268349703 63968221.916361429 23133315.824252106 28231375.257263947 63171311.672943898 23206924.63159081 28076978.660946619 62407236.621391177 23206924.286794398 28397150.437290434 64029456.912853204 23194551.050942168 28409524.087152496 64052934.075221442 23206925.260862708 28359391.975727975 63991698.295515828 23145689.857462294 28414569.002790455 63935292.768985994 23253658.075321738 28371765.544348933 64015176.262778535 23158063.082419466 28414569.002790455 63935292.768985994 23253658.075321738 28447282.306048557 64015176.570232354 23280533.698274355 28434315.065561242 63879416.515098885 23303993.042881154 28359391.975727975 63991698.295515828 23145689.857462294 28371765.544348933 64015176.262778535 23158063.082419466 28347018.228314944 63892704.938118026 23158063.272991873 28414569.002790455 63935292.768985994 23253658.075321738 28371765.544348933 64015176.262778535 23158063.082419466 28347018.228314944 63892704.938118026 23158063.272991873 28414569.002790455 63935292.768985994 23253658.075321738 28434315.065561242 63879416.515098885 23303993.042881154 28409524.087152496 64052934.075221442 23206925.260862708 28371765.544348933 64015176.262778535 23158063.082419466 28414569.002790455 63935292.768985994 23253658.075321738 28447282.306048557 64015176.570232354 23280533.698274355 28347018.228314944 63892704.938118026 23158063.272991873 28414569.002790455 63935292.768985994 23253658.075321738 28434