<?xml version="1.0"?>
<VTKFile type="UnstructuredGrid" version="0.1" byte_order="LittleEndian">
<UnstructuredGrid>
<Piece NumberOfPoints="23284" NumberOfCells="5821">
<Points>
<DataArray type="Float64" NumberOfComponents="3" format="ascii">
0.0038256098144006869 0.0041400759042262009 0.0039854622984236152 0.0050000000000000001 0.0050000000000000001 0 0.007850875913509971 0.005381679503114206 0.0037846524567980611 0.01459658547112015 0.02963818693411439 0.01348159639352434 0 0 0.0050000000000000001 0 0.0050000000000000001 0.0050000000000000001 0.0025000000000000001 0.0025000000000000001 0.067187500000176273 0 0 0.12937500000035251 0.0025000000000000001 0.0025000000000000001 0.035993247487525602 0.01335482532982827 0.061921935510367468 0.031596396334779613 0.053495808280144469 0.082973914578683722 0.047312437411078337 0 0.0736402080526046 0.073773792303481078 0.056489871231288402 0.0025000000000000001 0.0025000000000000001 0.045799116620837459 0.028040759187074001 0.036821396352863953 0.0025000000000000001 0.0025000000000000001 0.035993247487525602 0.0025000000000000001 0.0025000000000000001 0.067187500000176273 0 0.0050000000000000001 0.0050000000000000001 0.0095042730786282278 0.0082759167994670979 0.0082480707199308924 0.0045817963841059857 0.0043364158334714669 0.009473343555270677 0.01335482532982827 0.061921935510367468 0.031596396334779613 0.045799116620837459 0.028040759187074001 0.036821396352863953 0.0025000000000000001 0.0025000000000000001 0.035993247487525602 0.053495808280144469 0.082973914578683722 0.047312437411078337 0.0025000000000000001 0.0025000000000000001 0.067187500000176273 0.056489871231288402 0.0025000000000000001 0.0025000000000000001 0.045799116620837459 0.028040759187074001 0.036821396352863953 0.073626545880309466 0 0.073777028331958816 0.0025000000000000001 0.0025000000000000001 0.067187500000176273 0.045799116620837459 0.028040759187074001 0.036821396352863953 0.053495808280144469 0.082973914578683722 0.047312437411078337 0.073626545880309466 0 0.073777028331958816 0.0025000000000000001 0.0025000000000000001 0.067187500000176273 0.056489871231288402 0.0025000000000000001 0.0025000000000000001 0.045799116620837459 0.028040759187074001 0.036821396352863953 0.073580292400886219 0.073580292401008413 0 0.073626545880309466 0 0.073777028331958816 0.045799116620837459 0.028040759187074001 0.036821396352863953 0.053495808280144469 0.082973914578683722 0.047312437411078337 0.073580292400886219 0.073580292401008413 0 0.073626545880309466 0 0.073777028331958816 0 0 0 0 0.0025000000000000001 0.0025000000000000001 0.0025000000000000001 0.0025000000000000001 0 0.0025000000000000001 0 0.0025000000000000001 0 0 0.0050000000000000001 0 0.0050000000000000001 0.0050000000000000001 0.0025000000000000001 0.0025000000000000001 0.035993247487525602 0.0025000000000000001 0.0025000000000000001 0.067187500000176273 0.010477667344183201 0.01284643002126089 0.00012275481760709659 0.007850875913509971 0.005381679503114206 0.0037846524567980611 0.0095042730786282278 0.0082759167994670979 0.0082480707199308924 0.01459658547112015 0.02963818693411439 0.01348159639352434 0.0050000000000000001 0.0050000000000000001 0 0.010477667344183201 0.01284643002126089 0.00012275481760709659 0.007850875913509971 0.005381679503114206 0.0037846524567980611 0.01459658547112015 0.02963818693411439 0.01348159639352434 0.0038256098144006869 0.0041400759042262009 0.0039854622984236152 0.007850875913509971 0.005381679503114206 0.0037846524567980611 0.0095042730786282278 0.0082759167994670979 0.0082480707199308924 0.01459658547112015 0.02963818693411439 0.01348159639352434 0 0 0 0 0.0025000000000000001 0.0025000000000000001 0.0025000000000000001 0.0025000000000000001 0 0 0.0050000000000000001 0 0.010477667344183201 0.01284643002126089 0.00012275481760709659 0.0095042730786282278 0.0082759167994670979 0.0082480707199308924 0.01459658547112015 0.02963818693411439 0.01348159639352434 0.034373062133854368 0.040091712813656893 0.017906843810535381 0.0050000000000000001 0 0.0050000000000000001 0 0 0.0050000000000000001 0.0025000000000000001 0.0025000000000000001 0.067187500000176273 0 0 0.12937500000035251 0.0095042730786282278 0.0082759167994670979 0.0082480707199308924 0.0025000000000000001 0.0025000000000000001 0.02029496691504501 0.045799116620837459 0.028040759187074001 0.036821396352863953 0.034373062133854368 0.040091712813656893 0.017906843810535381 0.0050000000000000001 0 0.0050000000000000001 0.0045817963841059857 0.0043364158334714669 0.009473343555270677 0.0025000000000000001 0.0025000000000000001 0.02029496691504501 0.056489871231288402 0.0025000000000000001 0.0025000000000000001 0.0050000000000000001 0 0.0050000000000000001 0.0045817963841059857 0.0043364158334714669 0.009473343555270677 0.028851790063782669 0.0025000000000000001 0.0025000000000000001 0.056489871231288402 0.0025000000000000001 0.0025000000000000001 0.0095042730786282278 0.0082759167994670979 0.0082480707199308924 0.0045817963841059857 0.0043364158334714669 0.009473343555270677 0.0025000000000000001 0.0025000000000000001 0.02029496691504501 0.056489871231288402 0.0025000000000000001 0.0025000000000000001 0.0095042730786282278 0.0082759167994670979 0.0082480707199308924 0.0045817963841059857 0.0043364158334714669 0.009473343555270677 0.028851790063782669 0.0025000000000000001 0.0025000000000000001 0.056489871231288402 0.0025000000000000001 0.0025000000000000001 0.0095042730786282278 0.0082759167994670979 0.0082480707199308924 0.0025000000000000001 0.0025000000000000001 0.02029496691504501 0.056489871231288402 0.0025000000000000001 0.0025000000000000001 0.045799116620837459 0.028040759187074001 0.036821396352863953 0 0.0050000000000000001 0.0050000000000000001 0 0.0050000000000000001 0 0.016153278899017791 0.044583689206717327 0.01563807923371947 0.0025000000000000001 0.056489871231288402 0.0025000000000000001 0.056489871231288402 0.0025000000000000001 0.0025000000000000001 0.045799116620837459 0.028040759187074001 0.036821396352863953 0.034373062133854368 0.040091712813656893 0.017906843810535381 0.073580292400886219 0.073580292401008413 0 0.028851790063782669 0.0025000000000000001 0.0025000000000000001 0.056489871231288402 0.0025000000000000001 0.0025000000000000001 0.034373062133854368 0.040091712813656893 0.017906843810535381 0.073580292400886219 0.073580292401008413 0 0.0050000000000000001 0 0 0.0050000000000000001 0 0.0050000000000000001 0.056489871231288402 0.0025000000000000001 0.0025000000000000001 0.128749999999761 0 0 0.0095042730786282278 0.0082759167994670979 0.0082480707199308924 0.0045817963841059857 0.0043364158334714669 0.009473343555270677 0.0025000000000000001 0.0025000000000000001 0.02029496691504501 0.01335482532982827 0.061921935510367468 0.031596396334779613 0 0.0050000000000000001 0.0050000000000000001 0.0025000000000000001 0.0025000000000000001 0.02029496691504501 0.0025000000000000001 0.0025000000000000001 0.035993247487525602 0.01335482532982827 0.061921935510367468 0.031596396334779613 0 0.0050000000000000001 0.0050000000000000001 0.0038256098144006869 0.0041400759042262009 0.0039854622984236152 0 0.0050000000000000001 0 0.01459658547112015 0.02963818693411439 0.01348159639352434 0.0050000000000000001 0 0 0.0050000000000000001 0.0050000000000000001 0 0.013289992014046129 0.0065291354129584592 0.0037710740372293499 0.007850875913509971 0.005381679503114206 0.0037846524567980611 0.0050000000000000001 0 0 0.0050000000000000001 0.0050000000000000001 0 0.056489871231288402 0.0025000000000000001 0.0025000000000000001 0.128749999999761 0 0 0.0025000000000000001 0.0025000000000000001 0.035993247487525602 0.053495808280144469 0.082973914578683722 0.047312437411078337 0 0.0736402080526046 0.073773792303481078 0.0025000000000000001 0.0025000000000000001 0.067187500000176273 0.0050000000000000001 0 0 0.0050000000000000001 0.0050000000000000001 0 0.013289992014046129 0.0065291354129584592 0.0037710740372293499 0.028851790063782669 0.0025000000000000001 0.0025000000000000001 0.0050000000000000001 0.0050000000000000001 0 0.010477667344183201 0.01284643002126089 0.00012275481760709659 0.013289992014046129 0.0065291354129584592 0.0037710740372293499 0.028851790063782669 0.0025000000000000001 0.0025000000000000001 0.0050000000000000001 0 0 0.0050000000000000001 0.0050000000000000001 0 0.028851790063782669 0.0025000000000000001 0.0025000000000000001 0.056489871231288402 0.0025000000000000001 0.0025000000000000001 0.0050000000000000001 0.0050000000000000001 0 0 0.0050000000000000001 0 0.0025000000000000001 0.056489871231288402 0.0025000000000000001 0 0.12875000000032791 0 0.0050000000000000001 0.0050000000000000001 0 0.010477667344183201 0.01284643002126089 0.00012275481760709659 0.0025000000000000001 0.056489871231288402 0.0025000000000000001 0 0.12875000000032791 0 0.0050000000000000001 0.0050000000000000001 0 0 0.0050000000000000001 0 0.01459658547112015 0.02963818693411439 0.01348159639352434 0.016153278899017791 0.044583689206717327 0.01563807923371947 0.0050000000000000001 0.0050000000000000001 0 0.010477667344183201 0.01284643002126089 0.00012275481760709659 0.01459658547112015 0.02963818693411439 0.01348159639352434 0.016153278899017791 0.044583689206717327 0.01563807923371947 0.0050000000000000001 0.0050000000000000001 0 0 0.0050000000000000001 0 0.016153278899017791 0.044583689206717327 0.01563807923371947 0.0025000000000000001 0.056489871231288402 0.0025000000000000001 0.0050000000000000001 0.0050000000000000001 0 0.010477667344183201 0.01284643002126089 0.00012275481760709659 0.016153278899017791 0.044583689206717327 0.01563807923371947 0.0025000000000000001 0.056489871231288402 0.0025000000000000001 0.0050000000000000001 0 0.0050000000000000001 0.056489871231288402 0.0025000000000000001 0.0025000000000000001 0.073626545880309466 0 0.073777028331958816 0.0025000000000000001 0.0025000000000000001 0.067187500000176273 0.0025000000000000001 0.0025000000000000001 0.02029496691504501 0.045799116620837459 0.028040759187074001 0.036821396352863953 0
[...]
<PointData Scalars="" Vectors="displacement," Tensors="">
<DataArray type="Float64" Name="displacement" NumberOfComponents="3" format="ascii">
1943775.7009479215 4197936.1513765501 1524262.8528203906 1946816.7443739444 4203171.7149903122 1526288.6449292719 1945045.49885512 4194504.276523185 1528497.0029750157 1962198.527334522 4172817.316800368 1570813.6027960768 1939347.7883009743 4199889.5991254961 1515537.3713842703 1944006.8575067807 4199889.5991882905 1523478.6645959949 1906728.2267386962 4098790.2257823464 1520912.7932876097 1869449.5638629859 4002349.9130826364 1515536.9518978922 1924259.2588733896 4148334.7700531874 1520912.8973070648 1982100.6197015648 4145203.4415989113 1621390.6187424113 1992884.8489210645 4082838.3727587583 1677385.6974009722 1969316.3390736885 4090659.047218428 1632496.7951766527 1943082.3897972184 4151222.1675994224 1551255.0540407668 1947593.207832414 4106672.7629444036 1585812.1035646775 1924259.2588733896 4148334.7700531874 1520912.8973070648 1906728.2267386962 4098790.2257823464 1520912.7932876097 1944006.8575067807 4199889.5991882905 1523478.6645959949 1945234.0082906096 4185874.5798618607 1534022.9925860111 1940874.5210770986 4188515.3754214575 1524999.6431169873 1982100.6197015648 4145203.4415989113 1621390.6187424113 1947593.207832414 4106672.7629444036 1585812.1035646775 1924259.2588733896 4148334.7700531874 1520912.8973070648 1992884.8489210645 4082838.3727587583 1677385.6974009722 1906728.2267386962 4098790.2257823464 1520912.7932876097 1943082.3897972184 4151222.1675994224 1551255.0540407668 1947593.207832414 4106672.7629444036 1585812.1035646775 1900695.4554762456 4022047.6013521869 1556914.9773511156 1906728.2267386962 4098790.2257823464 1520912.7932876097 1947593.207832414 4106672.7629444036 1585812.1035646775 1992884.8489210645 4082838.3727587583 1677385.6974009722 1900695.4554762456 4022047.6013521869 1556914.9773511156 1906728.2267386962 4098790.2257823464 1520912.7932876097 1943082.3897972184 4151222.1675994224 1551255.0540407668 1947593.207832414 4106672.7629444036 1585812.1035646775 2010721.2615157552 4139267.7554549025 1673753.6135481931 1900695.4554762456 4022047.6013521869 1556914.9773511156 1947593.207832414 4106672.7629444036 1585812.1035646775 1992884.8489210645 4082838.3727587583 1677385.6974009722 2010721.2615157552 4139267.7554549025 1673753.6135481931 1900695.4554762456 4022047.6013521869 1556914.9773511156 1942157.7758591922 4207830.7399331834 1515537.4096696235 1943082.3246398461 4203860.1795145189 1519508.0115066394 1944487.2595314768 4205501.2545205979 1520913.0077781668 1940752.803480895 4201530.6229639128 1516942.4032584406 1939347.7883009743 4199889.5991254961 1515537.3713842703 1944006.8575067807 4199889.5991882905 1523478.6645959949 1924259.2588733896 4148334.7700531874 1520912.8973070648 1906728.2267386962 4098790.2257823464 1520912.7932876097 1954059.2190626347 4197872.5922180377 1541829.2165581842 1945045.49885512 4194504.276523185 1528497.0029750157 1945234.0082906096 4185874.5798618607 1534022.9925860111 1962198.527334522 4172817.316800368 1570813.6027960768 1946816.7443739444 4203171.7149903122 1526288.6449292719 1954059.2190626347 4197872.5922180377 1541829.2165581842 1945045.49885512 4194504.276523185 1528497.0029750157 1962198.527334522 4172817.316800368 1570813.6027960768 1943775.7009479215 4197936.1513765501 1524262.8528203906 1945045.49885512 4194504.276523185 1528497.0029750157 1945234.0082906096 4185874.5798618607 1534022.9925860111 1962198.527334522 4172817.316800368 1570813.6027960768 1942157.7758591922 4207830.7399331834 1515537.4096696235 1943082.3246398461 4203860.1795145189 1519508.0115066394 1944487.2595314768 4205501.2545205979 1520913.0077781668 1946816.773578411 4207830.8330493169 1523478.6760969784 1954059.2190626347 4197872.5922180377 1541829.2165581842 1945234.0082906096 4185874.5798618607 1534022.9925860111 1962198.527334522 4172817.316800368 1570813.6027960768 1969452.3770475064 4147360.9087156164 1598530.7707801524 1939347.7897513346 4195230.5124278208 1518347.3369572808 1939347.7883009743 4199889.5991254961 1515537.3713842703 1906728.2267386962 4098790.2257823464 1520912.7932876097 1869449.5638629859 4002349.9130826364 1515536.9518978922 1945234.0082906096 4185874.5798618607 1534022.9925860111 1933081.6185617687 4173267.6993090636 1520912.9501303025 1947593.207832414 4106672.7629444036 1585812.1035646775 1969452.3770475064 4147360.9087156164 1598530.7707801524 1939347.7897513346 4195230.5124278208 1518347.3369572808 1940874.5210770986 4188515.3754214575 1524999.6431169873 1933081.6185617687 4173267.6993090636 1520912.9501303025 1943082.3897972184 4151222.1675994224 1551255.0540407668 1939347.7897513346 4195230.5124278208 1518347.3369572808 1940874.5210770986 4188515.3754214575 1524999.6431169873 1943082.2965192413 4176975.6806201576 1535722.5826979661 1943082.3897972184 4151222.1675994224 1551255.0540407668 1945234.0082906096 4185874.5798618607 1534022.9925860111 1940874.5210770986 4188515.3754214575 1524999.6431169873 1933081.6185617687 4173267.6993090636 1520912.9501303025 1943082.3897972184 4151222.1675994224 1551255.0540407668 1945234.0082906096 4185874.5798618607 1534022.9925860111 1940874.5210770986 4188515.3754214575 1524999.6431169873 1943082.2965192413 4176975.6806201576 1535722.5826979661 1943082.3897972184 4151222.1675994224 1551255.0540407668 1945234.0082906096 4185874.5798618607 1534022.9925860111 1933081.6185617687 4173267.6993090636 1520912.9501303025 1943082.3897972184 4151222.1675994224 1551255.0540407668 1947593.207832414 4106672.7629444036 1585812.1035646775 1944006.8575067807 4199889.5991882905 1523478.6645959949 1946816.773578411 4207830.8330493169 1523478.6760969784 1974913.08939943 4167941.7425992391 1595425.7435365855 1993390.9919296689 4201530.7018541032 1606662.7695010088 1943082.3897972184 4151222.1675994224 1551255.0540407668 1947593.207832414 4106672.7629444036 1585812.1035646775 1969452.3770475064 4147360.9087156164 1598530.7707801524 2010721.2615157552 4139267.7554549025 1673753.6135481931 1943082.2965192413 4176975.6806201576 1535722.5826979661 1943082.3897972184 4151222.1675994224 1551255.0540407668 1969452.3770475064 4147360.9087156164 1598530.7707801524 2010721.2615157552 4139267.7554549025 1673753.6135481931 1942157.7109789983 4203171.7256558482 1518347.3567509581 1939347.7897513346 4195230.5124278208 1518347.3369572808 1943082.3897972184 4151222.1675994224 1551255.0540407668 1942158.0242256834 4087859.8423840208 1587894.2574854835 1945234.0082906096 4185874.5798618607 1534022.9925860111 1940874.5210770986 4188515.3754214575 1524999.6431169873 1933081.6185617687 4173267.6993090636 1520912.9501303025 1982100.6197015648 4145203.4415989113 1621390.6187424113 1944006.8575067807 4199889.5991882905 1523478.6645959949 1933081.6185617687 4173267.6993090636 1520912.9501303025 1924259.2588733896 4148334.7700531874 1520912.8973070648 1982100.6197015648 4145203.4415989113 1621390.6187424113 1944006.8575067807 4199889.5991882905 1523478.6645959949 1943775.7009479215 4197936.1513765501 1524262.8528203906 1946816.773578411 4207830.8330493169 1523478.6760969784 1962198.527334522 4172817.316800368 1570813.6027960768 1942157.7109789983 4203171.7256558482 1518347.3567509581 1946816.7443739444 4203171.7149903122 1526288.6449292719 1946122.359114124 4189457.5903764167 1533376.222745005 1945045.49885512 4194504.276523185 1528497.0029750157 1942157.7109789983 4203171.7256558482 1518347.3567509581 1946816.7443739444 4203171.7149903122 1526288.6449292719 1943082.3897972184 4151222.1675994224 1551255.0540407668 1942158.0242256834 4087859.8423840208 1587894.2574854835 1924259.2588733896 4148334.7700531874 1520912.8973070648 1992884.8489210645 4082838.3727587583 1677385.6974009722 1969316.3390736885 4090659.047218428 1632496.7951766527 1906728.2267386962 4098790.2257823464 1520912.7932876097 1942157.7109789983 4203171.7256558482 1518347.3567509581 1946816.7443739444 4203171.7149903122 1526288.6449292719 1946122.359114124 4189457.5903764167 1533376.222745005 1943082.2965192413 4176975.6806201576 1535722.5826979661 1946816.7443739444 4203171.7149903122 1526288.6449292719 1954059.2190626347 4197872.5922180377 1541829.2165581842 1946122.359114124 4189457.5903764167 1533376.222745005 1943082.2965192413 4176975.6806201576 1535722.5826979661 1942157.7109789983 4203171.7256558482 1518347.3567509581 1946816.7443739444 4203171.7149903122 1526288.6449292719 1943082.2965192413 4176975.6806201576 1535722.5826979661 1943082.3897972184 4151222.1675994224 1551255.0540407668 1946816.7443739444 4203171.7149903122 1526288.6449292719 1946816.773578411 4207830.8330493169 1523478.6760969784 1993390.9919296689 4201530.7018541032 1606662.7695010088 2062129.2666312607 4207830.9494410492 1720025.3953975772 1946816.7443739444 4203171.7149903122 1526288.6449292719 1954059.2190626347 4197872.5922180377 1541829.2165581842 1993390.9919296689 4201530.7018541032 1606662.7695010088 2062129.2666312607 4207830.9494410492 1720025.3953975772 1946816.7443739444 4203171.7149903122 1526288.6449292719 1946816.773578411 4207830.8330493169 1523478.6760969784 1962198.527334522 4172817.316800368 1570813.6027960768 1974913.08939943 4167941.7425992391 1595425.7435365855 1946816.7443739444 4203171.7149903122 1526288.6449292719 1954059.2190626347 4197872.5922180377 1541829.2165581842 1962198.527334522 4172817.316800368 1570813.6027960768 1974913.08939943 4167941.7425992391 1595425.7435365855 1946816.7443739444 4203171.7149903122 1526288.6449292719 1946816.773578411 4207830.8330493169 1523478.6760969784 1974913.08939943 4167941.7425992391 1595425.7435365855 1993390.9919296689 4201530.7018541032 1606662.7695010088 1946816.7443739444 4203171.7149903122 1526288.6449292719 1954059.2190626347 4197872.5922180377 1541829.2165581842 1974913.08939943 4167941.7425992391 1595425.7435365855 1993390.9919296689 4201530.7018541032 1606662.7695010088 1939347.7897513346 4195230.5124278208 1518347.3369572808 1943082.3897972184 4151222.1675994224 1551255.0540407668 1900695.4554762456 4022047.6013521869 1556914.9773511156 1906728.2267386962 4098790.2257823464 1520912.7932876097 1933081.6185617687 4173267.6993090636 1520912.9501303025 1947593.207832414 4106672.7629444036 1585812.1035646775 1924259.2588733896 4148334.7700531874 1520912.8973070648 1969452.3770475064 4147360.9087156164 1598530.7707801524 1939347.7897513346 4195230.5124278208 1518347.3369572808 1943082.3897972184 4151222.1675994224 1551255.0540407668 1924259.2588733896 4148334.7700531874 1520912.8973070648 1906728.2267386962 4098790.2257823464 1520912.7932876097 1944006.8575067807 4199889.5991882905 1523478.6645959949 1945234.0082906096 4185874.5798618607 1534022.9925860111 1962198.527334522 4172817.316800368 1570813.6027960768 1982100.6197015648 4145203.4415989113 1621390.6187424113 1944006.8575067807 4199889.5991882905 1523478.6645959949 1924259.2588733896 4148334.7700531874 1520912.8973070648 1969316.3390736885 4090659.047218428 1632496.7951766527 1906728.2267386962 4098790.2257823464 1520912.7932876097 1944006.8575067807 4199889.5991882905 1523478.6645959949 1924259.2588733896 4148334.7700531874 1520912.8973070648 1982100.6197015648 4145203.4415989113 1621390.6187424113 1969316.3390736885 4090659.047218428 1632496.7951766527 1944006.8575067807 4199889.5991882905 1523478.6645959949 1940874.5210770986 4188515.3754214575 1524999.6431169873 1933081.6185617687 4173267.6993090636 1520912.9501303025 1982100.6197015648 4145203.4415989113 1621390.6187424113 1943775.7009479215 4197936.1513765501 1524262.8528203906 1946816.7443739444 4203171.7149903122 1526288.6449292719 1946816.773578411 4207830.8330493169 1523478.6760969784 1962198.527334522 4172817.316800368 1570813.6027960768 1946122.359114124 4189457.5903764167 1533376.222745005 1945234.0082906096 4185874.5798618607 1534022.9925860111 1943082.2965192413 4176975.6806201576 1535722.5826979661 1969452.3770475064 4147360.9087156164 1598530.7707801524 1947593.207832414 4106672.7629444036 1585812.1035646775 1924259.2588733896 4148334.7700531874 1520912.8973070648 1969452.3770475064 4147360.9087156164 1598530.7707801524 1992884.8489210645 4082838.3727587583 1677385.6974009722 1942157.7758591922 4207830.7399331834 1515537.4096696235 1944487.2595314768 4205501.2545205979 1520913.0077781668 1940752.803480895 4201530.6229639128 1516942.4032584406 1942157.7109789983 4203171.7256558482 1518347.3567509581 1924259.2588733896 4148334.7700531874 1520912.8973070648 1982100.6197015648 4145203.4415989113 1621390.6187424113 1969452.3770475064 4147360.9087156164 1598530.7707801524 1992884.8489210645 4082838.3727587583 1677385.6974009722 1942157.7758591922 4207830.7399331834 1515537.4096696235 1943082.3246398461 4203860.1795145189 1519508.0115066394 1940752.803480895 4201530.6229639128 1516942.4032584406 1939347.7883009743 4199889.5991254961 1515537.3713842703 1946816.7443739444 4203171.7149903122 1526288.6449292719 1954059.2190626347 4197872.5922180377 1541829.2165581842 1943082.2965192413 4176975.6806201576 1535722.5826979661 2010721.2615157552 4139267.7554549025 1673753.6135481931 1946816.7443739444 4203171.7149903122 1526288.6449292719 1943082.2965192413 4176975.6806201576 1535722.5826979661 1943082.3897972184 4151222.1675994224 1551255.0540407668 2010721.2615157552 4139267.7554549025 1673753.6135481931 1933081.6185617687 4173267.6993090636 1520912.9501303025 1924259.2588733896 4148334.7700531874 1520912.8973070648 1982100.6197015648 4145203.4415989113 1621390.6187424113 1969452.3770475064 4147360.9087156164 1598530.7707801524 1942157.7109789983 4203171.7256558482 1518347.3567509581 1939347.7897513346 4195230.5124278208 1518347.3369572808 1946122.359114124 4189457.5903764167 1533376.222745005 1945045.49885512 4194504.276523185 1528497.0029750157 1954059.2190626347 4197872.5922180377 1541829.2165581842 1943082.2965192413 4176975.6806201576 1535722.5826979661 1993390.9919296689 4201530.7018541032 1606662.7695010088 2010721.2615157552 4139267.7554549025 1673753.6135481931 1943082.2965192413 4176975.6806201576 1535722.5826979661 1969452.3770475064 4147360.9087156164 1598530.7707801524 1993390.9919296689 4201530.7018541032 1606662.7695010088 2010721.2615157552 4139267.7554549025 1673753.6135481931 1942157.7109789983 4203171.7256558482 1518347.3567509581 1939347.7897513346 4195230.5124278208 1518347.3369572808 1946122.359114124 4189457.5903764167 1533376.222745005 1943082.2965192413 4176975.6806201576 1535722.5826979661 1943082.3246398461 4203860.1795145189 1519508.0115066394 1944487.2595314768 4205501.2545205979 1520913.0077781668 1943775.7009479215 4197936.1513765501 1524262.8528203906 1946816.773578411 4207830.8330493169 1523478.6760969784 1944487.2595314768 4205501.2545205979 1520913.0077781668 1940752.803480895 4201530.6229639128 1516942.4032584406 1942157.7109789983 4203171.7256558482 1518347.3567509581 1943775.7009479215 4197936.1513765501 1524262.8528203906 1939347.7897513346 4195230.5124278208 1518347.3369572808 1946122.359114124 4189457.5903764167 1533376.222745005 1945045.49885512 4194504.276523185 1528497.0029750157 1940874.5210770986 4188515.3754214575 1524999.6431169873 1946122.359114124 4189457.5903764167 1533376.222745005 1945234.0082906096 4185874.5798618607 1534022.9925860111 1940874.5210770986 4188515.3754214575 1524999.6431169873 1943082.2965192413 4176975.6806201576 1535722.5826979661 1946816.7443739444 4203171.7149903122 1526288.6449292719 1954059.2190626347 4197872.5922180377 1541829.2165581842 2010721.2615157552 4139267.7554549025 1673753.6135481931 2062129.2666312607 4207830.9494410492 1720025.3953975772 1939347.7897513346 4195230.5124278208 1518347.3369572808 1946122.359114124 4189457.5903764167 1533376.222745005 1940874.5210770986 4188515.3754214575 1524999.6431169873 1943082.2965192413 4176975.6806201576 1535722.5826979661 1944006.8575067807 4199889.5991882905 1523478.6645959949 1946816.773578411 4207830.8330493169 1523478.6760969784 1962198.527334522 4172817.316800368 1570813.6027960768 1974913.08939943 4167941.7425992391 1595425.7435365855 1954059.2190626347 4197872.5922180377 1541829.2165581842 1946122.359114124 4189457.5903764167 1533376.222745005 1945234.0082906096 4185874.5798618607 1534022.9925860111 1969452.3770475064 4147360.9087156164 1598530.7707801524 1943082.3246398461 4203860.1795145189 1519508.0115066394 1940752.803480895 4201530.6229639128 1516942.4032584406 1939347.7883009743 4199889.5991254961 1515537.3713842703 1943775.7009479215 4197936.1513765501 1524262.8528203906 1942157.7109789983 4203171.7256558482 1518347.3567509581 1939347.7897513346 4195230.5124278208 1518347.3369572808 1943082.2965192413 4176975.6806201576 1535722.5826979661 1943082.3897972184 4151222.1675994224 1551255.0540407668 1939347.7897513346 4195230.5124278208 1518347.3369572808 1933081.6185617687 4173267.6993090636 1520912.9501303025 1943082.3897972184 4151222.1675994224 1551255.0540407668 1924259.2588733896 4148334.7700531874 1520912.8973070648 1944006.8575067807 4199889.5991882905 1523478.6645959949 1946816.773578411 4207830.8330493169 1523478.6760969784 1993390.9919296689 4201530.7018541032 1606662.7695010088 2062129.2666312607 4207830.9494410492 1720025.3953975772 1945234.0082906096 4185874.5798618607 1534022.9925860111 1933081.6185617687 4173267.6993090636 1520912.9501303025 1982100.6197015648 4145203.4415989113 1621390.6187424113 1969452.3770475064 4147360.9087156164 1598530.7707801524 1933081.6185617687 4173267.6993090636 1520912.9501303025 1943082.3897972184 4151222.1675994224 1551255.0540407668 1947593.207832414 4106672.7629444036 1585812.1035646775 1924259.2588733896 4148334.7700531874 1520912.8973070648 1954059.2190626347 4197872.5922180377 1541829.2165581842 1943082.2965192413 4176975.6806201576 1535722.5826979661 1969452.3770475064 4147360.9087156164 1598530.7707801524 1993390.9919296689 4201530.7018541032 1606662.7695010088 1944006.8575067807 4199889.5991882905 1523478.6645959949 1943775.7009479215 4197936.1513765501 1524262.8528203906 1945234.0082906096 4185874.5798618607 1534022.9925860111 1962198.527334522 4172817.316800368 1570813.6027960768 1954059.2190626347 4197872.5922180377 1541829.2165581842 1946122.359114124 4189457.5903764167 1533376.222745005 1943082.2965192413 4176975.6806201576 1535722.5826979661 1969452.3770475064 4147360.9087156164 1598530.7707801524 1944006.8575067807 4199889.5991882905 1523478.6645959949 1943775.7009479215 4197936.1513765501 1524262.8528203906 1945234.0082906096 4185874.5798618607 1534022.9925860111 1940874.5210770986 4188515.3754214575 1524999.6431169873 1939347.7897513346 4195230.5124278208 1518347.3369572808 1939347.7883009743 4199889.5991254961 1515537.3713842703 1924259.2588733896 4148334.7700531874 1520912.8973070648 1906728.2267386962 4098790.2257823464 1520912.7932876097 1943082.3246398461 4203860.1795145189 1519508.0115066394 1944487.2595314768 4205501.2545205979 1520913.0077781668 1940752.803480895 4201530.6229639128 1516942.4032584406 1943775.7009479215 4197936.1513765501 1524262.8528203906 1942157.7109789983 4203171.7256558482 1518347.3567509581 1943775.7009479215 4197936.1513765501 1524262.8528203906 1946816.7443739444 4203171.7149903122 1526288.6449292719 1945045.49885512 4194504.276523185 1528497.0029750157 1940752.803480895 4201530.6229639128 1516942.4032584406 1942157.7109789983 4203171.7256558482 1518347.3567509581 1939347.7897513346 4195230.5124278208 1518347.3369572808 1943775.7009479215 4197936.1513765501 1524262.8528203906 1942157.7109789983 4203171.7256558482 1518347.3567509581 1939347.7897513346 4195230.5124278208 1518347.3369572808 1943775.7009479215 4197936.1513765501 1524262.8528203906 1945045.49885512 4194504.276523185 1528497.0029750157 1944487.2595314768 4205501.2545205979 1520913.0077781668 1942157.7109789983 4203171.7256558482 1518347.3567509581 1943775.7009479215 4197936.1513765501 1524262.8528203906 1946816.7443739444 4203171.7149903122 1526288.6449292719 1939347.7897513346 4195230.5124278208 1518347.3369572808 1943775.7009479215 4197936.1513765501 1524262.8528203906 1945045.49885512 4194504.