<?xml version="1.0"?>
<VTKFile type="UnstructuredGrid" version="0.1" byte_order="LittleEndian">
<UnstructuredGrid>
<Piece NumberOfPoints="23284" NumberOfCells="5821">
<Points>
<DataArray type="Float64" NumberOfComponents="3" format="ascii">
0.0038256098144006869 0.0041400759042262009 0.0039854622984236152 0.0050000000000000001 0.0050000000000000001 0 0.007850875913509971 0.005381679503114206 0.0037846524567980611 0.01459658547112015 0.02963818693411439 0.01348159639352434 0 0 0.0050000000000000001 0 0.0050000000000000001 0.0050000000000000001 0.0025000000000000001 0.0025000000000000001 0.067187500000176273 0 0 0.12937500000035251 0.0025000000000000001 0.0025000000000000001 0.035993247487525602 0.01335482532982827 0.061921935510367468 0.031596396334779613 0.053495808280144469 0.082973914578683722 0.047312437411078337 0 0.0736402080526046 0.073773792303481078 0.056489871231288402 0.0025000000000000001 0.0025000000000000001 0.045799116620837459 0.028040759187074001 0.036821396352863953 0.0025000000000000001 0.0025000000000000001 0.035993247487525602 0.0025000000000000001 0.0025000000000000001 0.067187500000176273 0 0.0050000000000000001 0.0050000000000000001 0.0095042730786282278 0.0082759167994670979 0.0082480707199308924 0.0045817963841059857 0.0043364158334714669 0.009473343555270677 0.01335482532982827 0.061921935510367468 0.031596396334779613 0.045799116620837459 0.028040759187074001 0.036821396352863953 0.0025000000000000001 0.0025000000000000001 0.035993247487525602 0.053495808280144469 0.082973914578683722 0.047312437411078337 0.0025000000000000001 0.0025000000000000001 0.067187500000176273 0.056489871231288402 0.0025000000000000001 0.0025000000000000001 0.045799116620837459 0.028040759187074001 0.036821396352863953 0.073626545880309466 0 0.073777028331958816 0.0025000000000000001 0.0025000000000000001 0.067187500000176273 0.045799116620837459 0.028040759187074001 0.036821396352863953 0.053495808280144469 0.082973914578683722 0.047312437411078337 0.073626545880309466 0 0.073777028331958816 0.0025000000000000001 0.0025000000000000001 0.067187500000176273 0.056489871231288402 0.0025000000000000001 0.0025000000000000001 0.045799116620837459 0.028040759187074001 0.036821396352863953 0.073580292400886219 0.073580292401008413 0 0.073626545880309466 0 0.073777028331958816 0.045799116620837459 0.028040759187074001 0.036821396352863953 0.053495808280144469 0.082973914578683722 0.047312437411078337 0.073580292400886219 0.073580292401008413 0 0.073626545880309466 0 0.073777028331958816 0 0 0 0 0.0025000000000000001 0.0025000000000000001 0.0025000000000000001 0.0025000000000000001 0 0.0025000000000000001 0 0.0025000000000000001 0 0 0.0050000000000000001 0 0.0050000000000000001 0.0050000000000000001 0.0025000000000000001 0.0025000000000000001 0.035993247487525602 0.0025000000000000001 0.0025000000000000001 0.067187500000176273 0.010477667344183201 0.01284643002126089 0.00012275481760709659 0.007850875913509971 0.005381679503114206 0.0037846524567980611 0.0095042730786282278 0.0082759167994670979 0.0082480707199308924 0.01459658547112015 0.02963818693411439 0.01348159639352434 0.0050000000000000001 0.0050000000000000001 0 0.010477667344183201 0.01284643002126089 0.00012275481760709659 0.007850875913509971 0.005381679503114206 0.0037846524567980611 0.01459658547112015 0.02963818693411439 0.01348159639352434 0.0038256098144006869 0.0041400759042262009 0.0039854622984236152 0.007850875913509971 0.005381679503114206 0.0037846524567980611 0.0095042730786282278 0.0082759167994670979 0.0082480707199308924 0.01459658547112015 0.02963818693411439 0.01348159639352434 0 0 0 0 0.0025000000000000001 0.0025000000000000001 0.0025000000000000001 0.0025000000000000001 0 0 0.0050000000000000001 0 0.010477667344183201 0.01284643002126089 0.00012275481760709659 0.0095042730786282278 0.0082759167994670979 0.0082480707199308924 0.01459658547112015 0.02963818693411439 0.01348159639352434 0.034373062133854368 0.040091712813656893 0.017906843810535381 0.0050000000000000001 0 0.0050000000000000001 0 0 0.0050000000000000001 0.0025000000000000001 0.0025000000000000001 0.067187500000176273 0 0 0.12937500000035251 0.0095042730786282278 0.0082759167994670979 0.0082480707199308924 0.0025000000000000001 0.0025000000000000001 0.02029496691504501 0.045799116620837459 0.028040759187074001 0.036821396352863953 0.034373062133854368 0.040091712813656893 0.017906843810535381 0.0050000000000000001 0 0.0050000000000000001 0.0045817963841059857 0.0043364158334714669 0.009473343555270677 0.0025000000000000001 0.0025000000000000001 0.02029496691504501 0.056489871231288402 0.0025000000000000001 0.0025000000000000001 0.0050000000000000001 0 0.0050000000000000001 0.0045817963841059857 0.0043364158334714669 0.009473343555270677 0.028851790063782669 0.0025000000000000001 0.0025000000000000001 0.056489871231288402 0.0025000000000000001 0.0025000000000000001 0.0095042730786282278 0.0082759167994670979 0.0082480707199308924 0.0045817963841059857 0.0043364158334714669 0.009473343555270677 0.0025000000000000001 0.0025000000000000001 0.02029496691504501 0.056489871231288402 0.0025000000000000001 0.0025000000000000001 0.0095042730786282278 0.0082759167994670979 0.0082480707199308924 0.0045817963841059857 0.0043364158334714669 0.009473343555270677 0.028851790063782669 0.0025000000000000001 0.0025000000000000001 0.056489871231288402 0.0025000000000000001 0.0025000000000000001 0.0095042730786282278 0.0082759167994670979 0.0082480707199308924 0.0025000000000000001 0.0025000000000000001 0.02029496691504501 0.056489871231288402 0.0025000000000000001 0.0025000000000000001 0.045799116620837459 0.028040759187074001 0.036821396352863953 0 0.0050000000000000001 0.0050000000000000001 0 0.0050000000000000001 0 0.016153278899017791 0.044583689206717327 0.01563807923371947 0.0025000000000000001 0.056489871231288402 0.0025000000000000001 0.056489871231288402 0.0025000000000000001 0.0025000000000000001 0.045799116620837459 0.028040759187074001 0.036821396352863953 0.034373062133854368 0.040091712813656893 0.017906843810535381 0.073580292400886219 0.073580292401008413 0 0.028851790063782669 0.0025000000000000001 0.0025000000000000001 0.056489871231288402 0.0025000000000000001 0.0025000000000000001 0.034373062133854368 0.040091712813656893 0.017906843810535381 0.073580292400886219 0.073580292401008413 0 0.0050000000000000001 0 0 0.0050000000000000001 0 0.0050000000000000001 0.056489871231288402 0.0025000000000000001 0.0025000000000000001 0.128749999999761 0 0 0.0095042730786282278 0.0082759167994670979 0.0082480707199308924 0.0045817963841059857 0.0043364158334714669 0.009473343555270677 0.0025000000000000001 0.0025000000000000001 0.02029496691504501 0.01335482532982827 0.061921935510367468 0.031596396334779613 0 0.0050000000000000001 0.0050000000000000001 0.0025000000000000001 0.0025000000000000001 0.02029496691504501 0.0025000000000000001 0.0025000000000000001 0.035993247487525602 0.01335482532982827 0.061921935510367468 0.031596396334779613 0 0.0050000000000000001 0.0050000000000000001 0.0038256098144006869 0.0041400759042262009 0.0039854622984236152 0 0.0050000000000000001 0 0.01459658547112015 0.02963818693411439 0.01348159639352434 0.0050000000000000001 0 0 0.0050000000000000001 0.0050000000000000001 0 0.013289992014046129 0.0065291354129584592 0.0037710740372293499 0.007850875913509971 0.005381679503114206 0.0037846524567980611 0.0050000000000000001 0 0 0.0050000000000000001 0.0050000000000000001 0 0.056489871231288402 0.0025000000000000001 0.0025000000000000001 0.128749999999761 0 0 0.0025000000000000001 0.0025000000000000001 0.035993247487525602 0.053495808280144469 0.082973914578683722 0.047312437411078337 0 0.0736402080526046 0.073773792303481078 0.0025000000000000001 0.0025000000000000001 0.067187500000176273 0.0050000000000000001 0 0 0.0050000000000000001 0.0050000000000000001 0 0.013289992014046129 0.0065291354129584592 0.0037710740372293499 0.028851790063782669 0.0025000000000000001 0.0025000000000000001 0.0050000000000000001 0.0050000000000000001 0 0.010477667344183201 0.01284643002126089 0.00012275481760709659 0.013289992014046129 0.0065291354129584592 0.0037710740372293499 0.028851790063782669 0.0025000000000000001 0.0025000000000000001 0.0050000000000000001 0 0 0.0050000000000000001 0.0050000000000000001 0 0.028851790063782669 0.0025000000000000001 0.0025000000000000001 0.056489871231288402 0.0025000000000000001 0.0025000000000000001 0.0050000000000000001 0.0050000000000000001 0 0 0.0050000000000000001 0 0.0025000000000000001 0.056489871231288402 0.0025000000000000001 0 0.12875000000032791 0 0.0050000000000000001 0.0050000000000000001 0 0.010477667344183201 0.01284643002126089 0.00012275481760709659 0.0025000000000000001 0.056489871231288402 0.0025000000000000001 0 0.12875000000032791 0 0.0050000000000000001 0.0050000000000000001 0 0 0.0050000000000000001 0 0.01459658547112015 0.02963818693411439 0.01348159639352434 0.016153278899017791 0.044583689206717327 0.01563807923371947 0.0050000000000000001 0.0050000000000000001 0 0.010477667344183201 0.01284643002126089 0.00012275481760709659 0.01459658547112015 0.02963818693411439 0.01348159639352434 0.016153278899017791 0.044583689206717327 0.01563807923371947 0.0050000000000000001 0.0050000000000000001 0 0 0.0050000000000000001 0 0.016153278899017791 0.044583689206717327 0.01563807923371947 0.0025000000000000001 0.056489871231288402 0.0025000000000000001 0.0050000000000000001 0.0050000000000000001 0 0.010477667344183201 0.01284643002126089 0.00012275481760709659 0.016153278899017791 0.044583689206717327 0.01563807923371947 0.0025000000000000001 0.056489871231288402 0.0025000000000000001 0.0050000000000000001 0 0.0050000000000000001 0.056489871231288402 0.0025000000000000001 0.0025000000000000001 0.073626545880309466 0 0.073777028331958816 0.0025000000000000001 0.0025000000000000001 0.067187500000176273 0.0025000000000000001 0.0025000000000000001 0.02029496691504501 0.045799116620837459 0.028040759187074001 0.036821396352863953 0
[...]
<PointData Scalars="" Vectors="displacement," Tensors="">
<DataArray type="Float64" Name="displacement" NumberOfComponents="3" format="ascii">
16452060.218383668 5006937.9956474137 4691663.5595381614 16481220.300675903 5006634.587426736 4700190.6483506039 16449195.733974328 5021266.6168296039 4722838.2900384981 16282953.102049727 5056735.7679490242 4749760.7521084324 16458818.656145973 4994260.6073863376 4665415.0487103844 16440735.515370525 4994260.6169688189 4659705.8059851388 15946246.694846455 5074311.0381010622 4682802.8974777935 15451757.873511015 5136278.3526210953 4665415.1415345073 16198825.660438957 5038691.8486054437 4682802.8802191829 16019519.740449047 5072929.1625457695 4702842.984905933 15816130.198164357 5236049.5805012714 5003825.121182628 15635629.922960419 5072790.0238422137 4581328.8010090813 16470019.515925281 5195708.854278096 5119957.3311937973 16099748.714248883 5196234.293450539 5004230.819808621 16198825.660438957 5038691.8486054437 4682802.8802191829 15946246.694846455 5074311.0381010622 4682802.8974777935 16440735.515370525 4994260.6169688189 4659705.8059851388 16402588.210279338 5032342.8691882743 4732921.0070026778 16406914.936715955 5015939.1664410774 4697562.1862960141 16019519.740449047 5072929.1625457695 4702842.984905933 16099748.714248883 5196234.293450539 5004230.819808621 16198825.660438957 5038691.8486054437 4682802.8802191829 15816130.198164357 5236049.5805012714 5003825.121182628 15946246.694846455 5074311.0381010622 4682802.8974777935 16470019.515925281 5195708.854278096 5119957.3311937973 16099748.714248883 5196234.293450539 5004230.819808621 15901933.053862074 5339073.6449480494 5261567.1732813586 15946246.694846455 5074311.0381010622 4682802.8974777935 16099748.714248883 5196234.293450539 5004230.819808621 15816130.198164357 5236049.5805012714 5003825.121182628 15901933.053862074 5339073.6449480494 5261567.1732813586 15946246.694846455 5074311.0381010622 4682802.8974777935 16470019.515925281 5195708.854278096 5119957.3311937973 16099748.714248883 5196234.293450539 5004230.819808621 16233190.918854995 5254663.8720262721 5177174.7593044136 15901933.053862074 5339073.6449480494 5261567.1732813586 16099748.714248883 5196234.293450539 5004230.819808621 15816130.198164357 5236049.5805012714 5003825.121182628 16233190.918854995 5254663.8720262721 5177174.7593044136 15901933.053862074 5339073.6449480494 5261567.1732813586 16499303.643830085 4988551.2478000773 4665414.882272589 16470019.546225103 4991405.9223537203 4662560.3294600509 16490261.972539799 4997592.9460978536 4682802.8532344252 16479061.113649765 5000447.5016031861 4685657.4810403008 16458818.656145973 4994260.6073863376 4665415.0487103844 16440735.515370525 4994260.6169688189 4659705.8059851388 16198825.660438957 5038691.8486054437 4682802.8802191829 15946246.694846455 5074311.0381010622 4682802.8974777935 16451848.74348354 5026585.429099584 4735583.6996291662 16449195.733974328 5021266.6168296039 4722838.2900384981 16402588.210279338 5032342.8691882743 4732921.0070026778 16282953.102049727 5056735.7679490242 4749760.7521084324 16481220.300675903 5006634.587426736 4700190.6483506039 16451848.74348354 5026585.429099584 4735583.6996291662 16449195.733974328 5021266.6168296039 4722838.2900384981 16282953.102049727 5056735.7679490242 4749760.7521084324 16452060.218383668 5006937.9956474137 4691663.5595381614 16449195.733974328 5021266.6168296039 4722838.2900384981 16402588.210279338 5032342.8691882743 4732921.0070026778 16282953.102049727 5056735.7679490242 4749760.7521084324 16499303.643830085 4988551.2478000773 4665414.882272589 16470019.546225103 4991405.9223537203 4662560.3294600509 16490261.972539799 4997592.9460978536 4682802.8532344252 16481220.328606937 4988551.4054731308 4659705.8007428395 16451848.74348354 5026585.429099584 4735583.6996291662 16402588.210279338 5032342.8691882743 4732921.0070026778 16282953.102049727 5056735.7679490242 4749760.7521084324 16209315.484626707 5133312.8961509699 4897953.9372855192 16458818.658561632 5012343.7463800646 4705899.9100324567 16458818.656145973 4994260.6073863376 4665415.0487103844 15946246.694846455 5074311.0381010622 4682802.8974777935 15451757.873511015 5136278.3526210953 4665415.1415345073 16402588.210279338 5032342.8691882743 4732921.0070026778 16325934.18713622 5020766.7496814355 4682802.8657380352 16099748.714248883 5196234.293450539 5004230.819808621 16209315.484626707 5133312.8961509699 4897953.9372855192 16458818.658561632 5012343.7463800646 4705899.9100324567 16406914.936715955 5015939.1664410774 4697562.1862960141 16325934.18713622 5020766.7496814355 4682802.8657380352 16470019.515925281 5195708.854278096 5119957.3311937973 16458818.658561632 5012343.7463800646 4705899.9100324567 16406914.936715955 5015939.1664410774 4697562.1862960141 16470019.48579401 5095752.2291477611 4896172.5625203298 16470019.515925281 5195708.854278096 5119957.3311937973 16402588.210279338 5032342.8691882743 4732921.0070026778 16406914.936715955 5015939.1664410774 4697562.1862960141 16325934.18713622 5020766.7496814355 4682802.8657380352 16470019.515925281 5195708.854278096 5119957.3311937973 16402588.210279338 5032342.8691882743 4732921.0070026778 16406914.936715955 5015939.1664410774 4697562.1862960141 16470019.48579401 5095752.2291477611 4896172.5625203298 16470019.515925281 5195708.854278096 5119957.3311937973 16402588.210279338 5032342.8691882743 4732921.0070026778 16325934.18713622 5020766.7496814355 4682802.8657380352 16470019.515925281 5195708.854278096 5119957.3311937973 16099748.714248883 5196234.293450539 5004230.819808621 16440735.515370525 4994260.6169688189 4659705.8059851388 16481220.328606937 4988551.4054731308 4659705.8007428395 16211439.802311035 5064828.1231629588 4745299.6991082169 16274758.165695131 5000447.5433550077 4621154.3648080844 16470019.515925281 5195708.854278096 5119957.3311937973 16099748.714248883 5196234.293450539 5004230.819808621 16209315.484626707 5133312.8961509699 4897953.9372855192 16233190.918854995 5254663.8720262721 5177174.7593044136 16470019.48579401 5095752.2291477611 4896172.5625203298 16470019.515925281 5195708.854278096 5119957.3311937973 16209315.484626707 5133312.8961509699 4897953.9372855192 16233190.918854995 5254663.8720262721 5177174.7593044136 16499303.486150891 5006634.563067114 4705899.903858792 16458818.658561632 5012343.7463800646 4705899.9100324567 16470019.515925281 5195708.854278096 5119957.3311937973 16499303.543463552 5454192.2291820543 5707900.2115461789 16402588.210279338 5032342.8691882743 4732921.0070026778 16406914.936715955 5015939.1664410774 4697562.1862960141 16325934.18713622 5020766.7496814355 4682802.8657380352 16019519.740449047 5072929.1625457695 4702842.984905933 16440735.515370525 4994260.6169688189 4659705.8059851388 16325934.18713622 5020766.7496814355 4682802.8657380352 16198825.660438957 5038691.8486054437 4682802.8802191829 16019519.740449047 5072929.1625457695 4702842.984905933 16440735.515370525 4994260.6169688189 4659705.8059851388 16452060.218383668 5006937.9956474137 4691663.5595381614 16481220.328606937 4988551.4054731308 4659705.8007428395 16282953.102049727 5056735.7679490242 4749760.7521084324 16499303.486150891 5006634.563067114 4705899.903858792 16481220.300675903 5006634.587426736 4700190.6483506039 16445155.755883953 5040922.3671965636 4765568.4351539928 16449195.733974328 5021266.6168296039 4722838.2900384981 16499303.486150891 5006634.563067114 4705899.903858792 16481220.300675903 5006634.587426736 4700190.6483506039 16470019.515925281 5195708.854278096 5119957.3311937973 16499303.543463552 5454192.2291820543 5707900.2115461789 16198825.660438957 5038691.8486054437 4682802.8802191829 15816130.198164357 5236049.5805012714 5003825.121182628 15635629.922960419 5072790.0238422137 4581328.8010090813 15946246.694846455 5074311.0381010622 4682802.8974777935 16499303.486150891 5006634.563067114 4705899.903858792 16481220.300675903 5006634.587426736 4700190.6483506039 16445155.755883953 5040922.3671965636 4765568.4351539928 16470019.48579401 5095752.2291477611 4896172.5625203298 16481220.300675903 5006634.587426736 4700190.6483506039 16451848.74348354 5026585.429099584 4735583.6996291662 16445155.755883953 5040922.3671965636 4765568.4351539928 16470019.48579401 5095752.2291477611 4896172.5625203298 16499303.486150891 5006634.563067114 4705899.903858792 16481220.300675903 5006634.587426736 4700190.6483506039 16470019.48579401 5095752.2291477611 4896172.5625203298 16470019.515925281 5195708.854278096 5119957.3311937973 16481220.300675903 5006634.587426736 4700190.6483506039 16481220.328606937 4988551.4054731308 4659705.8007428395 16274758.165695131 5000447.5433550077 4621154.3648080844 16033662.528900696 4988551.2313869186 4518401.5000212844 16481220.300675903 5006634.587426736 4700190.6483506039 16451848.74348354 5026585.429099584 4735583.6996291662 16274758.165695131 5000447.5433550077 4621154.3648080844 16033662.528900696 4988551.2313869186 4518401.5000212844 16481220.300675903 5006634.587426736 4700190.6483506039 16481220.328606937 4988551.4054731308 4659705.8007428395 16282953.102049727 5056735.7679490242 4749760.7521084324 16211439.802311035 5064828.1231629588 4745299.6991082169 16481220.300675903 5006634.587426736 4700190.6483506039 16451848.74348354 5026585.429099584 4735583.6996291662 16282953.102049727 5056735.7679490242 4749760.7521084324 16211439.802311035 5064828.1231629588 4745299.6991082169 16481220.300675903 5006634.587426736 4700190.6483506039 16481220.328606937 4988551.4054731308 4659705.8007428395 16211439.802311035 5064828.1231629588 4745299.6991082169 16274758.165695131 5000447.5433550077 4621154.3648080844 16481220.300675903 5006634.587426736 4700190.6483506039 16451848.74348354 5026585.429099584 4735583.6996291662 16211439.802311035 5064828.1231629588 4745299.6991082169 16274758.165695131 5000447.5433550077 4621154.3648080844 16458818.658561632 5012343.7463800646 4705899.9100324567 16470019.515925281 5195708.854278096 5119957.3311937973 15901933.053862074 5339073.6449480494 5261567.1732813586 15946246.694846455 5074311.0381010622 4682802.8974777935 16325934.18713622 5020766.7496814355 4682802.8657380352 16099748.714248883 5196234.293450539 5004230.819808621 16198825.660438957 5038691.8486054437 4682802.8802191829 16209315.484626707 5133312.8961509699 4897953.9372855192 16458818.658561632 5012343.7463800646 4705899.9100324567 16470019.515925281 5195708.854278096 5119957.3311937973 16198825.660438957 5038691.8486054437 4682802.8802191829 15946246.694846455 5074311.0381010622 4682802.8974777935 16440735.515370525 4994260.6169688189 4659705.8059851388 16402588.210279338 5032342.8691882743 4732921.0070026778 16282953.102049727 5056735.7679490242 4749760.7521084324 16019519.740449047 5072929.1625457695 4702842.984905933 16440735.515370525 4994260.6169688189 4659705.8059851388 16198825.660438957 5038691.8486054437 4682802.8802191829 15635629.922960419 5072790.0238422137 4581328.8010090813 15946246.694846455 5074311.0381010622 4682802.8974777935 16440735.515370525 4994260.6169688189 4659705.8059851388 16198825.660438957 5038691.8486054437 4682802.8802191829 16019519.740449047 5072929.1625457695 4702842.984905933 15635629.922960419 5072790.0238422137 4581328.8010090813 16440735.515370525 4994260.6169688189 4659705.8059851388 16406914.936715955 5015939.1664410774 4697562.1862960141 16325934.18713622 5020766.7496814355 4682802.8657380352 16019519.740449047 5072929.1625457695 4702842.984905933 16452060.218383668 5006937.9956474137 4691663.5595381614 16481220.300675903 5006634.587426736 4700190.6483506039 16481220.328606937 4988551.4054731308 4659705.8007428395 16282953.102049727 5056735.7679490242 4749760.7521084324 16445155.755883953 5040922.3671965636 4765568.4351539928 16402588.210279338 5032342.8691882743 4732921.0070026778 16470019.48579401 5095752.2291477611 4896172.5625203298 16209315.484626707 5133312.8961509699 4897953.9372855192 16099748.714248883 5196234.293450539 5004230.819808621 16198825.660438957 5038691.8486054437 4682802.8802191829 16209315.484626707 5133312.8961509699 4897953.9372855192 15816130.198164357 5236049.5805012714 5003825.121182628 16499303.643830085 4988551.2478000773 4665414.882272589 16490261.972539799 4997592.9460978536 4682802.8532344252 16479061.113649765 5000447.5016031861 4685657.4810403008 16499303.486150891 5006634.563067114 4705899.903858792 16198825.660438957 5038691.8486054437 4682802.8802191829 16019519.740449047 5072929.1625457695 4702842.984905933 16209315.484626707 5133312.8961509699 4897953.9372855192 15816130.198164357 5236049.5805012714 5003825.121182628 16499303.643830085 4988551.2478000773 4665414.882272589 16470019.546225103 4991405.9223537203 4662560.3294600509 16479061.113649765 5000447.5016031861 4685657.4810403008 16458818.656145973 4994260.6073863376 4665415.0487103844 16481220.300675903 5006634.587426736 4700190.6483506039 16451848.74348354 5026585.429099584 4735583.6996291662 16470019.48579401 5095752.2291477611 4896172.5625203298 16233190.918854995 5254663.8720262721 5177174.7593044136 16481220.300675903 5006634.587426736 4700190.6483506039 16470019.48579401 5095752.2291477611 4896172.5625203298 16470019.515925281 5195708.854278096 5119957.3311937973 16233190.918854995 5254663.8720262721 5177174.7593044136 16325934.18713622 5020766.7496814355 4682802.8657380352 16198825.660438957 5038691.8486054437 4682802.8802191829 16019519.740449047 5072929.1625457695 4702842.984905933 16209315.484626707 5133312.8961509699 4897953.9372855192 16499303.486150891 5006634.563067114 4705899.903858792 16458818.658561632 5012343.7463800646 4705899.9100324567 16445155.755883953 5040922.3671965636 4765568.4351539928 16449195.733974328 5021266.6168296039 4722838.2900384981 16451848.74348354 5026585.429099584 4735583.6996291662 16470019.48579401 5095752.2291477611 4896172.5625203298 16274758.165695131 5000447.5433550077 4621154.3648080844 16233190.918854995 5254663.8720262721 5177174.7593044136 16470019.48579401 5095752.2291477611 4896172.5625203298 16209315.484626707 5133312.8961509699 4897953.9372855192 16274758.165695131 5000447.5433550077 4621154.3648080844 16233190.918854995 5254663.8720262721 5177174.7593044136 16499303.486150891 5006634.563067114 4705899.903858792 16458818.658561632 5012343.7463800646 4705899.9100324567 16445155.755883953 5040922.3671965636 4765568.4351539928 16470019.48579401 5095752.2291477611 4896172.5625203298 16470019.546225103 4991405.9223537203 4662560.3294600509 16490261.972539799 4997592.9460978536 4682802.8532344252 16452060.218383668 5006937.9956474137 4691663.5595381614 16481220.328606937 4988551.4054731308 4659705.8007428395 16490261.972539799 4997592.9460978536 4682802.8532344252 16479061.113649765 5000447.5016031861 4685657.4810403008 16499303.486150891 5006634.563067114 4705899.903858792 16452060.218383668 5006937.9956474137 4691663.5595381614 16458818.658561632 5012343.7463800646 4705899.9100324567 16445155.755883953 5040922.3671965636 4765568.4351539928 16449195.733974328 5021266.6168296039 4722838.2900384981 16406914.936715955 5015939.1664410774 4697562.1862960141 16445155.755883953 5040922.3671965636 4765568.4351539928 16402588.210279338 5032342.8691882743 4732921.0070026778 16406914.936715955 5015939.1664410774 4697562.1862960141 16470019.48579401 5095752.2291477611 4896172.5625203298 16481220.300675903 5006634.587426736 4700190.6483506039 16451848.74348354 5026585.429099584 4735583.6996291662 16233190.918854995 5254663.8720262721 5177174.7593044136 16033662.528900696 4988551.2313869186 4518401.5000212844 16458818.658561632 5012343.7463800646 4705899.9100324567 16445155.755883953 5040922.3671965636 4765568.4351539928 16406914.936715955 5015939.1664410774 4697562.1862960141 16470019.48579401 5095752.2291477611 4896172.5625203298 16440735.515370525 4994260.6169688189 4659705.8059851388 16481220.328606937 4988551.4054731308 4659705.8007428395 16282953.102049727 5056735.7679490242 4749760.7521084324 16211439.802311035 5064828.1231629588 4745299.6991082169 16451848.74348354 5026585.429099584 4735583.6996291662 16445155.755883953 5040922.3671965636 4765568.4351539928 16402588.210279338 5032342.8691882743 4732921.0070026778 16209315.484626707 5133312.8961509699 4897953.9372855192 16470019.546225103 4991405.9223537203 4662560.3294600509 16479061.113649765 5000447.5016031861 4685657.4810403008 16458818.656145973 4994260.6073863376 4665415.0487103844 16452060.218383668 5006937.9956474137 4691663.5595381614 16499303.486150891 5006634.563067114 4705899.903858792 16458818.658561632 5012343.7463800646 4705899.9100324567 16470019.48579401 5095752.2291477611 4896172.5625203298 16470019.515925281 5195708.854278096 5119957.3311937973 16458818.658561632 5012343.7463800646 4705899.9100324567 16325934.18713622 5020766.7496814355 4682802.8657380352 16470019.515925281 5195708.854278096 5119957.3311937973 16198825.660438957 5038691.8486054437 4682802.8802191829 16440735.515370525 4994260.6169688189 4659705.8059851388 16481220.328606937 4988551.4054731308 4659705.8007428395 16274758.165695131 5000447.5433550077 4621154.3648080844 16033662.528900696 4988551.2313869186 4518401.5000212844 16402588.210279338 5032342.8691882743 4732921.0070026778 16325934.18713622 5020766.7496814355 4682802.8657380352 16019519.740449047 5072929.1625457695 4702842.984905933 16209315.484626707 5133312.8961509699 4897953.9372855192 16325934.18713622 5020766.7496814355 4682802.8657380352 16470019.515925281 5195708.854278096 5119957.3311937973 16099748.714248883 5196234.293450539 5004230.819808621 16198825.660438957 5038691.8486054437 4682802.8802191829 16451848.74348354 5026585.429099584 4735583.6996291662 16470019.48579401 5095752.2291477611 4896172.5625203298 16209315.484626707 5133312.8961509699 4897953.9372855192 16274758.165695131 5000447.5433550077 4621154.3648080844 16440735.515370525 4994260.6169688189 4659705.8059851388 16452060.218383668 5006937.9956474137 4691663.5595381614 16402588.210279338 5032342.8691882743 4732921.0070026778 16282953.102049727 5056735.7679490242 4749760.7521084324 16451848.74348354 5026585.429099584 4735583.6996291662 16445155.755883953 5040922.3671965636 4765568.4351539928 16470019.48579401 5095752.2291477611 4896172.5625203298 16209315.484626707 5133312.8961509699 4897953.9372855192 16440735.515370525 4994260.6169688189 4659705.8059851388 16452060.218383668 5006937.9956474137 4691663.5595381614 16402588.210279338 5032342.8691882743 4732921.0070026778 16406914.936715955 5015939.1664410774 4697562.1862960141 16458818.658561632 5012343.7463800646 4705899.9100324567 16458818.656145973 4994260.6073863376 4665415.0487103844 16198825.660438957 5038691.8486054437 4682802.8802191829 15946246.694846455 5074311.0381010622 4682802.8974777935 16470019.546225103 4991405.9223537203 4662560.3294600509 16490261.972539799 4997592.9460978536 4682802.8532344252 16479061.113649765 5000447.5016031861 4685657.4810403008 16452060.218383668 5006937.9956474137 4691663.5595381614 16499303.486150891 5006634.563067114 4705899.903858792 16452060.218383668 5006937.9956474137 4691663.5595381614 16481220.300675903 5006634.587426736 4700190.6483506039 16449195.733974328 5021266.6168296039 4722838.2900384981 16479061.113649765 5000447.5016031861 4685657.4810403008 16499303.486150891 5006634.563067114 4705899.903858792 16458818.658561632 5012343.7463800646 4705899.9100324567 16452060.218383668 5006937.9956474137 4691663.5595381614 16499303.486150891 5006634.563067114 4705899.903858792 16458818.658561632 5012343.7463800646 4705899.9100324567 16452060.218383668 5006937.9956474137 4691663.5595381614 16449195.733974328 5021266.6168296039 4722838.2900384981 16490261.972539799 4997592.9460978536 4682802.8532344252 16499303.486150891 5006634.563067114 4705899.903858792 16452060.218383668 5006937.9956474137 4691663.5595381614 16481220.300675903 5006634.587426736 4700190.6483506039 16458818.658561632 5012343.7463800646 4705899.9100324567 16452060.218383668 5006937.9956474137 4691663.5595381614 16449195.733974328 5021266.6168296039 4722838.2900384981 16406914.9367159