<?xml version="1.0"?>
<VTKFile type="UnstructuredGrid" version="0.1" byte_order="LittleEndian">
<UnstructuredGrid>
<Piece NumberOfPoints="23284" NumberOfCells="5821">
<Points>
<DataArray type="Float64" NumberOfComponents="3" format="ascii">
0.0038256098144006869 0.0041400759042262009 0.0039854622984236152 0.0050000000000000001 0.0050000000000000001 0 0.007850875913509971 0.005381679503114206 0.0037846524567980611 0.01459658547112015 0.02963818693411439 0.01348159639352434 0 0 0.0050000000000000001 0 0.0050000000000000001 0.0050000000000000001 0.0025000000000000001 0.0025000000000000001 0.067187500000176273 0 0 0.12937500000035251 0.0025000000000000001 0.0025000000000000001 0.035993247487525602 0.01335482532982827 0.061921935510367468 0.031596396334779613 0.053495808280144469 0.082973914578683722 0.047312437411078337 0 0.0736402080526046 0.073773792303481078 0.056489871231288402 0.0025000000000000001 0.0025000000000000001 0.045799116620837459 0.028040759187074001 0.036821396352863953 0.0025000000000000001 0.0025000000000000001 0.035993247487525602 0.0025000000000000001 0.0025000000000000001 0.067187500000176273 0 0.0050000000000000001 0.0050000000000000001 0.0095042730786282278 0.0082759167994670979 0.0082480707199308924 0.0045817963841059857 0.0043364158334714669 0.009473343555270677 0.01335482532982827 0.061921935510367468 0.031596396334779613 0.045799116620837459 0.028040759187074001 0.036821396352863953 0.0025000000000000001 0.0025000000000000001 0.035993247487525602 0.053495808280144469 0.082973914578683722 0.047312437411078337 0.0025000000000000001 0.0025000000000000001 0.067187500000176273 0.056489871231288402 0.0025000000000000001 0.0025000000000000001 0.045799116620837459 0.028040759187074001 0.036821396352863953 0.073626545880309466 0 0.073777028331958816 0.0025000000000000001 0.0025000000000000001 0.067187500000176273 0.045799116620837459 0.028040759187074001 0.036821396352863953 0.053495808280144469 0.082973914578683722 0.047312437411078337 0.073626545880309466 0 0.073777028331958816 0.0025000000000000001 0.0025000000000000001 0.067187500000176273 0.056489871231288402 0.0025000000000000001 0.0025000000000000001 0.045799116620837459 0.028040759187074001 0.036821396352863953 0.073580292400886219 0.073580292401008413 0 0.073626545880309466 0 0.073777028331958816 0.045799116620837459 0.028040759187074001 0.036821396352863953 0.053495808280144469 0.082973914578683722 0.047312437411078337 0.073580292400886219 0.073580292401008413 0 0.073626545880309466 0 0.073777028331958816 0 0 0 0 0.0025000000000000001 0.0025000000000000001 0.0025000000000000001 0.0025000000000000001 0 0.0025000000000000001 0 0.0025000000000000001 0 0 0.0050000000000000001 0 0.0050000000000000001 0.0050000000000000001 0.0025000000000000001 0.0025000000000000001 0.035993247487525602 0.0025000000000000001 0.0025000000000000001 0.067187500000176273 0.010477667344183201 0.01284643002126089 0.00012275481760709659 0.007850875913509971 0.005381679503114206 0.0037846524567980611 0.0095042730786282278 0.0082759167994670979 0.0082480707199308924 0.01459658547112015 0.02963818693411439 0.01348159639352434 0.0050000000000000001 0.0050000000000000001 0 0.010477667344183201 0.01284643002126089 0.00012275481760709659 0.007850875913509971 0.005381679503114206 0.0037846524567980611 0.01459658547112015 0.02963818693411439 0.01348159639352434 0.0038256098144006869 0.0041400759042262009 0.0039854622984236152 0.007850875913509971 0.005381679503114206 0.0037846524567980611 0.0095042730786282278 0.0082759167994670979 0.0082480707199308924 0.01459658547112015 0.02963818693411439 0.01348159639352434 0 0 0 0 0.0025000000000000001 0.0025000000000000001 0.0025000000000000001 0.0025000000000000001 0 0 0.0050000000000000001 0 0.010477667344183201 0.01284643002126089 0.00012275481760709659 0.0095042730786282278 0.0082759167994670979 0.0082480707199308924 0.01459658547112015 0.02963818693411439 0.01348159639352434 0.034373062133854368 0.040091712813656893 0.017906843810535381 0.0050000000000000001 0 0.0050000000000000001 0 0 0.0050000000000000001 0.0025000000000000001 0.0025000000000000001 0.067187500000176273 0 0 0.12937500000035251 0.0095042730786282278 0.0082759167994670979 0.0082480707199308924 0.0025000000000000001 0.0025000000000000001 0.02029496691504501 0.045799116620837459 0.028040759187074001 0.036821396352863953 0.034373062133854368 0.040091712813656893 0.017906843810535381 0.0050000000000000001 0 0.0050000000000000001 0.0045817963841059857 0.0043364158334714669 0.009473343555270677 0.0025000000000000001 0.0025000000000000001 0.02029496691504501 0.056489871231288402 0.0025000000000000001 0.0025000000000000001 0.0050000000000000001 0 0.0050000000000000001 0.0045817963841059857 0.0043364158334714669 0.009473343555270677 0.028851790063782669 0.0025000000000000001 0.0025000000000000001 0.056489871231288402 0.0025000000000000001 0.0025000000000000001 0.0095042730786282278 0.0082759167994670979 0.0082480707199308924 0.0045817963841059857 0.0043364158334714669 0.009473343555270677 0.0025000000000000001 0.0025000000000000001 0.02029496691504501 0.056489871231288402 0.0025000000000000001 0.0025000000000000001 0.0095042730786282278 0.0082759167994670979 0.0082480707199308924 0.0045817963841059857 0.0043364158334714669 0.009473343555270677 0.028851790063782669 0.0025000000000000001 0.0025000000000000001 0.056489871231288402 0.0025000000000000001 0.0025000000000000001 0.0095042730786282278 0.0082759167994670979 0.0082480707199308924 0.0025000000000000001 0.0025000000000000001 0.02029496691504501 0.056489871231288402 0.0025000000000000001 0.0025000000000000001 0.045799116620837459 0.028040759187074001 0.036821396352863953 0 0.0050000000000000001 0.0050000000000000001 0 0.0050000000000000001 0 0.016153278899017791 0.044583689206717327 0.01563807923371947 0.0025000000000000001 0.056489871231288402 0.0025000000000000001 0.056489871231288402 0.0025000000000000001 0.0025000000000000001 0.045799116620837459 0.028040759187074001 0.036821396352863953 0.034373062133854368 0.040091712813656893 0.017906843810535381 0.073580292400886219 0.073580292401008413 0 0.028851790063782669 0.0025000000000000001 0.0025000000000000001 0.056489871231288402 0.0025000000000000001 0.0025000000000000001 0.034373062133854368 0.040091712813656893 0.017906843810535381 0.073580292400886219 0.073580292401008413 0 0.0050000000000000001 0 0 0.0050000000000000001 0 0.0050000000000000001 0.056489871231288402 0.0025000000000000001 0.0025000000000000001 0.128749999999761 0 0 0.0095042730786282278 0.0082759167994670979 0.0082480707199308924 0.0045817963841059857 0.0043364158334714669 0.009473343555270677 0.0025000000000000001 0.0025000000000000001 0.02029496691504501 0.01335482532982827 0.061921935510367468 0.031596396334779613 0 0.0050000000000000001 0.0050000000000000001 0.0025000000000000001 0.0025000000000000001 0.02029496691504501 0.0025000000000000001 0.0025000000000000001 0.035993247487525602 0.01335482532982827 0.061921935510367468 0.031596396334779613 0 0.0050000000000000001 0.0050000000000000001 0.0038256098144006869 0.0041400759042262009 0.0039854622984236152 0 0.0050000000000000001 0 0.01459658547112015 0.02963818693411439 0.01348159639352434 0.0050000000000000001 0 0 0.0050000000000000001 0.0050000000000000001 0 0.013289992014046129 0.0065291354129584592 0.0037710740372293499 0.007850875913509971 0.005381679503114206 0.0037846524567980611 0.0050000000000000001 0 0 0.0050000000000000001 0.0050000000000000001 0 0.056489871231288402 0.0025000000000000001 0.0025000000000000001 0.128749999999761 0 0 0.0025000000000000001 0.0025000000000000001 0.035993247487525602 0.053495808280144469 0.082973914578683722 0.047312437411078337 0 0.0736402080526046 0.073773792303481078 0.0025000000000000001 0.0025000000000000001 0.067187500000176273 0.0050000000000000001 0 0 0.0050000000000000001 0.0050000000000000001 0 0.013289992014046129 0.0065291354129584592 0.0037710740372293499 0.028851790063782669 0.0025000000000000001 0.0025000000000000001 0.0050000000000000001 0.0050000000000000001 0 0.010477667344183201 0.01284643002126089 0.00012275481760709659 0.013289992014046129 0.0065291354129584592 0.0037710740372293499 0.028851790063782669 0.0025000000000000001 0.0025000000000000001 0.0050000000000000001 0 0 0.0050000000000000001 0.0050000000000000001 0 0.028851790063782669 0.0025000000000000001 0.0025000000000000001 0.056489871231288402 0.0025000000000000001 0.0025000000000000001 0.0050000000000000001 0.0050000000000000001 0 0 0.0050000000000000001 0 0.0025000000000000001 0.056489871231288402 0.0025000000000000001 0 0.12875000000032791 0 0.0050000000000000001 0.0050000000000000001 0 0.010477667344183201 0.01284643002126089 0.00012275481760709659 0.0025000000000000001 0.056489871231288402 0.0025000000000000001 0 0.12875000000032791 0 0.0050000000000000001 0.0050000000000000001 0 0 0.0050000000000000001 0 0.01459658547112015 0.02963818693411439 0.01348159639352434 0.016153278899017791 0.044583689206717327 0.01563807923371947 0.0050000000000000001 0.0050000000000000001 0 0.010477667344183201 0.01284643002126089 0.00012275481760709659 0.01459658547112015 0.02963818693411439 0.01348159639352434 0.016153278899017791 0.044583689206717327 0.01563807923371947 0.0050000000000000001 0.0050000000000000001 0 0 0.0050000000000000001 0 0.016153278899017791 0.044583689206717327 0.01563807923371947 0.0025000000000000001 0.056489871231288402 0.0025000000000000001 0.0050000000000000001 0.0050000000000000001 0 0.010477667344183201 0.01284643002126089 0.00012275481760709659 0.016153278899017791 0.044583689206717327 0.01563807923371947 0.0025000000000000001 0.056489871231288402 0.0025000000000000001 0.0050000000000000001 0 0.0050000000000000001 0.056489871231288402 0.0025000000000000001 0.0025000000000000001 0.073626545880309466 0 0.073777028331958816 0.0025000000000000001 0.0025000000000000001 0.067187500000176273 0.0025000000000000001 0.0025000000000000001 0.02029496691504501 0.045799116620837459 0.028040759187074001 0.036821396352863953 0
[...]
<PointData Scalars="" Vectors="displacement," Tensors="">
<DataArray type="Float64" Name="displacement" NumberOfComponents="3" format="ascii">
15837108.022740409 4453634.1708895406 4083812.9963588007 15866126.791308809 4453719.789264719 4092382.4704325162 15834176.003344577 4468182.3552468661 4114991.5756139308 15666948.542217299 4503188.9275379162 4143756.7235834417 15844100.199933989 4440679.9258387191 4057315.7189794551 15825764.884508366 4440679.9375561904 4052020.4825555114 15332931.054463059 4515707.2722032126 4074849.0939489137 14840097.27092189 4572399.2758029075 4057315.7936968473 15584743.096245755 4482671.0046643773 4074849.0586513816 15402332.618040901 4517819.8624335499 4099542.7615747931 15198267.93039809 4681663.1479906049 4401281.0608914187 15018888.976350963 4513514.8984079901 3979327.360791631 15855113.437201129 4645183.9462484559 4510675.9109681789 15484398.523751482 4642328.3913950101 4397327.2184341429 15584743.096245755 4482671.0046643773 4074849.0586513816 15332931.054463059 4515707.2722032126 4074849.0939489137 15825764.884508366 4440679.9375561904 4052020.4825555114 15787532.251889588 4478972.5132614402 4125273.2912253332 15792087.79110707 4462219.1587189967 4089709.280805985 15402332.618040901 4517819.8624335499 4099542.7615747931 15484398.523751482 4642328.3913950101 4397327.2184341429 15584743.096245755 4482671.0046643773 4074849.0586513816 15198267.93039809 4681663.1479906049 4401281.0608914187 15332931.054463059 4515707.2722032126 4074849.0939489137 15855113.437201129 4645183.9462484559 4510675.9109681789 15484398.523751482 4642328.3913950101 4397327.2184341429 15288905.511756444 4783510.908872759 4651657.3049970269 15332931.054463059 4515707.2722032126 4074849.0939489137 15484398.523751482 4642328.3913950101 4397327.2184341429 15198267.93039809 4681663.1479906049 4401281.0608914187 15288905.511756444 4783510.908872759 4651657.3049970269 15332931.054463059 4515707.2722032126 4074849.0939489137 15855113.437201129 4645183.9462484559 4510675.9109681789 15484398.523751482 4642328.3913950101 4397327.2184341429 15614638.809542229 4705207.9995156806 4573358.9333896898 15288905.511756444 4783510.908872759 4651657.3049970269 15484398.523751482 4642328.3913950101 4397327.2184341429 15198267.93039809 4681663.1479906049 4401281.0608914187 15614638.809542229 4705207.9995156806 4573358.9333896898 15288905.511756444 4783510.908872759 4651657.3049970269 15884462.178509504 4435384.6103281556 4057315.6443772903 15855113.606933091 4438032.252005822 4054668.0593783632 15875294.503193863 4444552.2516992306 4074848.9954884658 15864281.212798126 4447199.8331885915 4077496.6801353898 15844100.199933989 4440679.9258387191 4057315.7189794551 15825764.884508366 4440679.9375561904 4052020.4825555114 15584743.096245755 4482671.0046643773 4074849.0586513816 15332931.054463059 4515707.2722032126 4074849.0939489137 15836362.549260717 4473936.7449486526 4128290.5480667031 15834176.003344577 4468182.3552468661 4114991.5756139308 15787532.251889588 4478972.5132614402 4125273.2912253332 15666948.542217299 4503188.9275379162 4143756.7235834417 15866126.791308809 4453719.789264719 4092382.4704325162 15836362.549260717 4473936.7449486526 4128290.5480667031 15834176.003344577 4468182.3552468661 4114991.5756139308 15666948.542217299 4503188.9275379162 4143756.7235834417 15837108.022740409 4453634.1708895406 4083812.9963588007 15834176.003344577 4468182.3552468661 4114991.5756139308 15787532.251889588 4478972.5132614402 4125273.2912253332 15666948.542217299 4503188.9275379162 4143756.7235834417 15884462.178509504 4435384.6103281556 4057315.6443772903 15855113.606933091 4438032.252005822 4054668.0593783632 15875294.503193863 4444552.2516992306 4074848.9954884658 15866126.805338917 4435384.579523175 4052020.5239274106 15836362.549260717 4473936.7449486526 4128290.5480667031 15787532.251889588 4478972.5132614402 4125273.2912253332 15666948.542217299 4503188.9275379162 4143756.7235834417 15592892.536667148 4580396.9821259575 4292329.1970872823 15844100.184450118 4459015.2657984681 4097677.6549136695 15844100.199933989 4440679.9258387191 4057315.7189794551 15332931.054463059 4515707.2722032126 4074849.0939489137 14840097.27092189 4572399.2758029075 4057315.7936968473 15787532.251889588 4478972.5132614402 4125273.2912253332 15711465.679827781 4466045.7401371347 4074849.0678612171 15484398.523751482 4642328.3913950101 4397327.2184341429 15592892.536667148 4580396.9821259575 4292329.1970872823 15844100.184450118 4459015.2657984681 4097677.6549136695 15792087.79110707 4462219.1587189967 4089709.280805985 15711465.679827781 4466045.7401371347 4074849.0678612171 15855113.437201129 4645183.9462484559 4510675.9109681789 15844100.184450118 4459015.2657984681 4097677.6549136695 15792087.79110707 4462219.1587189967 4089709.280805985 15855113.45657639 4543833.4077349016 4287570.7991028707 15855113.437201129 4645183.9462484559 4510675.9109681789 15787532.251889588 4478972.5132614402 4125273.2912253332 15792087.79110707 4462219.1587189967 4089709.280805985 15711465.679827781 4466045.7401371347 4074849.0678612171 15855113.437201129 4645183.9462484559 4510675.9109681789 15787532.251889588 4478972.5132614402 4125273.2912253332 15792087.79110707 4462219.1587189967 4089709.280805985 15855113.45657639 4543833.4077349016 4287570.7991028707 15855113.437201129 4645183.9462484559 4510675.9109681789 15787532.251889588 4478972.5132614402 4125273.2912253332 15711465.679827781 4466045.7401371347 4074849.0678612171 15855113.437201129 4645183.9462484559 4510675.9109681789 15484398.523751482 4642328.3913950101 4397327.2184341429 15825764.884508366 4440679.9375561904 4052020.4825555114 15866126.805338917 4435384.579523175 4052020.5239274106 15594734.582360163 4511181.3102244306 4140494.9680830101 15657129.542685451 4447200.0543805016 4017671.3422857891 15855113.437201129 4645183.9462484559 4510675.9109681789 15484398.523751482 4642328.3913950101 4397327.2184341429 15592892.536667148 4580396.9821259575 4292329.1970872823 15614638.809542229 4705207.9995156806 4573358.9333896898 15855113.45657639 4543833.4077349016 4287570.7991028707 15855113.437201129 4645183.9462484559 4510675.9109681789 15592892.536667148 4580396.9821259575 4292329.1970872823 15614638.809542229 4705207.9995156806 4573358.9333896898 15884462.101525063 4453719.8136473168 4097677.7031385088 15844100.184450118 4459015.2657984681 4097677.6549136695 15855113.437201129 4645183.9462484559 4510675.9109681789 15884461.879988099 4907518.4016170558 5096634.7856716532 15787532.251889588 4478972.5132614402 4125273.2912253332 15792087.79110707 4462219.1587189967 4089709.280805985 15711465.679827781 4466045.7401371347 4074849.0678612171 15402332.618040901 4517819.8624335499 4099542.7615747931 15825764.884508366 4440679.9375561904 4052020.4825555114 15711465.679827781 4466045.7401371347 4074849.0678612171 15584743.096245755 4482671.0046643773 4074849.0586513816 15402332.618040901 4517819.8624335499 4099542.7615747931 15825764.884508366 4440679.9375561904 4052020.4825555114 15837108.022740409 4453634.1708895406 4083812.9963588007 15866126.805338917 4435384.579523175 4052020.5239274106 15666948.542217299 4503188.9275379162 4143756.7235834417 15884462.101525063 4453719.8136473168 4097677.7031385088 15866126.791308809 4453719.789264719 4092382.4704325162 15830077.830645792 4488113.5362564297 4157682.9917402505 15834176.003344577 4468182.3552468661 4114991.5756139308 15884462.101525063 4453719.8136473168 4097677.7031385088 15866126.791308809 4453719.789264719 4092382.4704325162 15855113.437201129 4645183.9462484559 4510675.9109681789 15884461.879988099 4907518.4016170558 5096634.7856716532 15584743.096245755 4482671.0046643773 4074849.0586513816 15198267.93039809 4681663.1479906049 4401281.0608914187 15018888.976350963 4513514.8984079901 3979327.360791631 15332931.054463059 4515707.2722032126 4074849.0939489137 15884462.101525063 4453719.8136473168 4097677.7031385088 15866126.791308809 4453719.789264719 4092382.4704325162 15830077.830645792 4488113.5362564297 4157682.9917402505 15855113.45657639 4543833.4077349016 4287570.7991028707 15866126.791308809 4453719.789264719 4092382.4704325162 15836362.549260717 4473936.7449486526 4128290.5480667031 15830077.830645792 4488113.5362564297 4157682.9917402505 15855113.45657639 4543833.4077349016 4287570.7991028707 15884462.101525063 4453719.8136473168 4097677.7031385088 15866126.791308809 4453719.789264719 4092382.4704325162 15855113.45657639 4543833.4077349016 4287570.7991028707 15855113.437201129 4645183.9462484559 4510675.9109681789 15866126.791308809 4453719.789264719 4092382.4704325162 15866126.805338917 4435384.579523175 4052020.5239274106 15657129.542685451 4447200.0543805016 4017671.3422857891 15412328.463344969 4435385.0683181277 3920963.5814582757 15866126.791308809 4453719.789264719 4092382.4704325162 15836362.549260717 4473936.7449486526 4128290.5480667031 15657129.542685451 4447200.0543805016 4017671.3422857891 15412328.463344969 4435385.0683181277 3920963.5814582757 15866126.791308809 4453719.789264719 4092382.4704325162 15866126.805338917 4435384.579523175 4052020.5239274106 15666948.542217299 4503188.9275379162 4143756.7235834417 15594734.582360163 4511181.3102244306 4140494.9680830101 15866126.791308809 4453719.789264719 4092382.4704325162 15836362.549260717 4473936.7449486526 4128290.5480667031 15666948.542217299 4503188.9275379162 4143756.7235834417 15594734.582360163 4511181.3102244306 4140494.9680830101 15866126.791308809 4453719.789264719 4092382.4704325162 15866126.805338917 4435384.579523175 4052020.5239274106 15594734.582360163 4511181.3102244306 4140494.9680830101 15657129.542685451 4447200.0543805016 4017671.3422857891 15866126.791308809 4453719.789264719 4092382.4704325162 15836362.549260717 4473936.7449486526 4128290.5480667031 15594734.582360163 4511181.3102244306 4140494.9680830101 15657129.542685451 4447200.0543805016 4017671.3422857891 15844100.184450118 4459015.2657984681 4097677.6549136695 15855113.437201129 4645183.9462484559 4510675.9109681789 15288905.511756444 4783510.908872759 4651657.3049970269 15332931.054463059 4515707.2722032126 4074849.0939489137 15711465.679827781 4466045.7401371347 4074849.0678612171 15484398.523751482 4642328.3913950101 4397327.2184341429 15584743.096245755 4482671.0046643773 4074849.0586513816 15592892.536667148 4580396.9821259575 4292329.1970872823 15844100.184450118 4459015.2657984681 4097677.6549136695 15855113.437201129 4645183.9462484559 4510675.9109681789 15584743.096245755 4482671.0046643773 4074849.0586513816 15332931.054463059 4515707.2722032126 4074849.0939489137 15825764.884508366 4440679.9375561904 4052020.4825555114 15787532.251889588 4478972.5132614402 4125273.2912253332 15666948.542217299 4503188.9275379162 4143756.7235834417 15402332.618040901 4517819.8624335499 4099542.7615747931 15825764.884508366 4440679.9375561904 4052020.4825555114 15584743.096245755 4482671.0046643773 4074849.0586513816 15018888.976350963 4513514.8984079901 3979327.360791631 15332931.054463059 4515707.2722032126 4074849.0939489137 15825764.884508366 4440679.9375561904 4052020.4825555114 15584743.096245755 4482671.0046643773 4074849.0586513816 15402332.618040901 4517819.8624335499 4099542.7615747931 15018888.976350963 4513514.8984079901 3979327.360791631 15825764.884508366 4440679.9375561904 4052020.4825555114 15792087.79110707 4462219.1587189967 4089709.280805985 15711465.679827781 4466045.7401371347 4074849.0678612171 15402332.618040901 4517819.8624335499 4099542.7615747931 15837108.022740409 4453634.1708895406 4083812.9963588007 15866126.791308809 4453719.789264719 4092382.4704325162 15866126.805338917 4435384.579523175 4052020.5239274106 15666948.542217299 4503188.9275379162 4143756.7235834417 15830077.830645792 4488113.5362564297 4157682.9917402505 15787532.251889588 4478972.5132614402 4125273.2912253332 15855113.45657639 4543833.4077349016 4287570.7991028707 15592892.536667148 4580396.9821259575 4292329.1970872823 15484398.523751482 4642328.3913950101 4397327.2184341429 15584743.096245755 4482671.0046643773 4074849.0586513816 15592892.536667148 4580396.9821259575 4292329.1970872823 15198267.93039809 4681663.1479906049 4401281.0608914187 15884462.178509504 4435384.6103281556 4057315.6443772903 15875294.503193863 4444552.2516992306 4074848.9954884658 15864281.212798126 4447199.8331885915 4077496.6801353898 15884462.101525063 4453719.8136473168 4097677.7031385088 15584743.096245755 4482671.0046643773 4074849.0586513816 15402332.618040901 4517819.8624335499 4099542.7615747931 15592892.536667148 4580396.9821259575 4292329.1970872823 15198267.93039809 4681663.1479906049 4401281.0608914187 15884462.178509504 4435384.6103281556 4057315.6443772903 15855113.606933091 4438032.252005822 4054668.0593783632 15864281.212798126 4447199.8331885915 4077496.6801353898 15844100.199933989 4440679.9258387191 4057315.7189794551 15866126.791308809 4453719.789264719 4092382.4704325162 15836362.549260717 4473936.7449486526 4128290.5480667031 15855113.45657639 4543833.4077349016 4287570.7991028707 15614638.809542229 4705207.9995156806 4573358.9333896898 15866126.791308809 4453719.789264719 4092382.4704325162 15855113.45657639 4543833.4077349016 4287570.7991028707 15855113.437201129 4645183.9462484559 4510675.9109681789 15614638.809542229 4705207.9995156806 4573358.9333896898 15711465.679827781 4466045.7401371347 4074849.0678612171 15584743.096245755 4482671.0046643773 4074849.0586513816 15402332.618040901 4517819.8624335499 4099542.7615747931 15592892.536667148 4580396.9821259575 4292329.1970872823 15884462.101525063 4453719.8136473168 4097677.7031385088 15844100.184450118 4459015.2657984681 4097677.6549136695 15830077.830645792 4488113.5362564297 4157682.9917402505 15834176.003344577 4468182.3552468661 4114991.5756139308 15836362.549260717 4473936.7449486526 4128290.5480667031 15855113.45657639 4543833.4077349016 4287570.7991028707 15657129.542685451 4447200.0543805016 4017671.3422857891 15614638.809542229 4705207.9995156806 4573358.9333896898 15855113.45657639 4543833.4077349016 4287570.7991028707 15592892.536667148 4580396.9821259575 4292329.1970872823 15657129.542685451 4447200.0543805016 4017671.3422857891 15614638.809542229 4705207.9995156806 4573358.9333896898 15884462.101525063 4453719.8136473168 4097677.7031385088 15844100.184450118 4459015.2657984681 4097677.6549136695 15830077.830645792 4488113.5362564297 4157682.9917402505 15855113.45657639 4543833.4077349016 4287570.7991028707 15855113.606933091 4438032.252005822 4054668.0593783632 15875294.503193863 4444552.2516992306 4074848.9954884658 15837108.022740409 4453634.1708895406 4083812.9963588007 15866126.805338917 4435384.579523175 4052020.5239274106 15875294.503193863 4444552.2516992306 4074848.9954884658 15864281.212798126 4447199.8331885915 4077496.6801353898 15884462.101525063 4453719.8136473168 4097677.7031385088 15837108.022740409 4453634.1708895406 4083812.9963588007 15844100.184450118 4459015.2657984681 4097677.6549136695 15830077.830645792 4488113.5362564297 4157682.9917402505 15834176.003344577 4468182.3552468661 4114991.5756139308 15792087.79110707 4462219.1587189967 4089709.280805985 15830077.830645792 4488113.5362564297 4157682.9917402505 15787532.251889588 4478972.5132614402 4125273.2912253332 15792087.79110707 4462219.1587189967 4089709.280805985 15855113.45657639 4543833.4077349016 4287570.7991028707 15866126.791308809 4453719.789264719 4092382.4704325162 15836362.549260717 4473936.7449486526 4128290.5480667031 15614638.809542229 4705207.9995156806 4573358.9333896898 15412328.463344969 4435385.0683181277 3920963.5814582757 15844100.184450118 4459015.2657984681 4097677.6549136695 15830077.830645792 4488113.5362564297 4157682.9917402505 15792087.79110707 4462219.1587189967 4089709.280805985 15855113.45657639 4543833.4077349016 4287570.7991028707 15825764.884508366 4440679.9375561904 4052020.4825555114 15866126.805338917 4435384.579523175 4052020.5239274106 15666948.542217299 4503188.9275379162 4143756.7235834417 15594734.582360163 4511181.3102244306 4140494.9680830101 15836362.549260717 4473936.7449486526 4128290.5480667031 15830077.830645792 4488113.5362564297 4157682.9917402505 15787532.251889588 4478972.5132614402 4125273.2912253332 15592892.536667148 4580396.9821259575 4292329.1970872823 15855113.606933091 4438032.252005822 4054668.0593783632 15864281.212798126 4447199.8331885915 4077496.6801353898 15844100.199933989 4440679.9258387191 4057315.7189794551 15837108.022740409 4453634.1708895406 4083812.9963588007 15884462.101525063 4453719.8136473168 4097677.7031385088 15844100.184450118 4459015.2657984681 4097677.6549136695 15855113.45657639 4543833.4077349016 4287570.7991028707 15855113.437201129 4645183.9462484559 4510675.9109681789 15844100.184450118 4459015.2657984681 4097677.6549136695 15711465.679827781 4466045.7401371347 4074849.0678612171 15855113.437201129 4645183.9462484559 4510675.9109681789 15584743.096245755 4482671.0046643773 4074849.0586513816 15825764.884508366 4440679.9375561904 4052020.4825555114 15866126.805338917 4435384.579523175 4052020.5239274106 15657129.542685451 4447200.0543805016 4017671.3422857891 15412328.463344969 4435385.0683181277 3920963.5814582757 15787532.251889588 4478972.5132614402 4125273.2912253332 15711465.679827781 4466045.7401371347 4074849.0678612171 15402332.618040901 4517819.8624335499 4099542.7615747931 15592892.536667148 4580396.9821259575 4292329.1970872823 15711465.679827781 4466045.7401371347 4074849.0678612171 15855113.437201129 4645183.9462484559 4510675.9109681789 15484398.523751482 4642328.3913950101 4397327.2184341429 15584743.096245755 4482671.0046643773 4074849.0586513816 15836362.549260717 4473936.7449486526 4128290.5480667031 15855113.45657639 4543833.4077349016 4287570.7991028707 15592892.536667148 4580396.9821259575 4292329.1970872823 15657129.542685451 4447200.0543805016 4017671.3422857891 15825764.884508366 4440679.9375561904 4052020.4825555114 15837108.022740409 4453634.1708895406 4083812.9963588007 15787532.251889588 4478972.5132614402 4125273.2912253332 15666948.542217299 4503188.9275379162 4143756.7235834417 15836362.549260717 4473936.7449486526 4128290.5480667031 15830077.830645792 4488113.5362564297 4157682.9917402505 15855113.45657639 4543833.4077349016 4287570.7991028707 15592892.536667148 4580396.9821259575 4292329.1970872823 15825764.884508366 4440679.9375561904 4052020.4825555114 15837108.022740409 4453634.1708895406 4083812.9963588007 15787532.251889588 4478972.5132614402 4125273.2912253332 15792087.79110707 4462219.1587189967 4089709.280805985 15844100.184450118 4459015.2657984681 4097677.6549136695 15844100.199933989 4440679.9258387191 4057315.7189794551 15584743.096245755 4482671.0046643773 4074849.0586513816 15332931.054463059 4515707.2722032126 4074849.0939489137 15855113.606933091 4438032.252005822 4054668.0593783632 15875294.503193863 4444552.2516992306 4074848.9954884658 15864281.212798126 4447199.8331885915 4077496.6801353898 15837108.022740409 4453634.1708895406 4083812.9963588007 15884462.101525063 4453719.8136473168 4097677.7031385088 15837108.022740409 4453634.1708895406 4083812.9963588007 15866126.791308809 4453719.789264719 4092382.4704325162 15834176.003344577 4468182.3552468661 4114991.5756139308 15864281.212798126 4447199.8331885915 4077496.6801353898 15884462.101525063 4453719.8136473168 4097677.7031385088 15844100.184450118 4459015.2657984681 4097677.6549136695 15837108.022740409 4453634.1708895406 4083812.9963588007 15884462.101525063 4453719.8136473168 4097677.7031385088 15844100.184450118 4459015.2657984681 4097677.6549136695 15837108.022740409 4453634.1708895406 4083812.9963588007 15834176.003344577 4468182.3552468661 4114991.5756139308 15875294.503193863 4444552.2516992306 4074848.9954884658 15884462.101525063 4453719.8136473168 4097677.7031385088 15837108.022740409 4453634.1708895406 4083812.9963588007 15866126.791308809 4453719.789264719 4092382.4704325162 15844100.184450118 4459015.2657984681 4097677.6549136695 15837108.022740409 4453634.1708895406 4083812.9963588007