<?xml version="1.0"?>
<VTKFile type="UnstructuredGrid" version="0.1" byte_order="LittleEndian">
<UnstructuredGrid>
<Piece NumberOfPoints="21736" NumberOfCells="5434">
<Points>
<DataArray type="Float64" NumberOfComponents="3" format="ascii">
0 0 0 0.06323106138816019 0.062142082272951933 0.059406074834875783 0 0.12500000000052011 0 0.097115124458785826 0.097115124458952332 0 0 0 0 0.06323106138816019 0.062142082272951933 0.059406074834875783 0.097115124458785826 0.097115124458952332 0 0.12499999999977381 0 0 0 0 0 0.06323106138816019 0.062142082272951933 0.059406074834875783 0 0 0.12499999999977381 0.097115124458877891 0 0.097115124458877891 0 0 0 0.06323106138816019 0.062142082272951933 0.059406074834875783 0.097115124458877891 0 0.097115124458877891 0.12499999999977381 0 0 0 0 0 0.06323106138816019 0.062142082272951933 0.059406074834875783 0 0.097115124458952332 0.097115124458785826 0 0.12500000000052011 0 0 0 0 0.06323106138816019 0.062142082272951933 0.059406074834875783 0 0 0.12499999999977381 0 0.097115124458952332 0.097115124458785826 0 0 0.12499999999977381 0.072551601355543657 0 0.18244710269698541 0.061562519669449138 0.059434890704512577 0.14640236215318811 0.097115124458877891 0 0.097115124458877891 0 0 0.12499999999977381 0.072551601355543657 0 0.18244710269698541 0.061562519669449138 0.059434890704512577 0.14640236215318811 0 0 0.24999999999941239 0 0 0.12499999999977381 0 0.073316820370859764 0.18109440156403181 0.061562519669449138 0.059434890704512577 0.14640236215318811 0 0 0.24999999999941239 0.072551601355543657 0 0.18244710269698541 0.061562519669449138 0.059434890704512577 0.14640236215318811 0.08935723244776661 0.086883235764133676 0.21915734371072179 0 0 0.24999999999941239 0 0.073316820370859764 0.18109440156403181 0.061562519669449138 0.059434890704512577 0.14640236215318811 0.08935723244776661 0.086883235764133676 0.21915734371072179 0 0 0.24999999999941239 0.06323106138816019 0.062142082272951933 0.059406074834875783 0 0 0.12499999999977381 0.061562519669449138 0.059434890704512577 0.14640236215318811 0.097115124458877891 0 0.097115124458877891 0.06323106138816019 0.062142082272951933 0.059406074834875783 0.061562519669449138 0.059434890704512577 0.14640236215318811 0 0.097115124458952332 0.097115124458785826 0.1289262165046228 0.1094244395929215 0.109406571350707 0.06323106138816019 0.062142082272951933 0.059406074834875783 0 0 0.12499999999977381 0.061562519669449138 0.059434890704512577 0.14640236215318811 0 0.097115124458952332 0.097115124458785826 0 0 0.12499999999977381 0 0.073316820370859764 0.18109440156403181 0.061562519669449138 0.059434890704512577 0.14640236215318811 0 0.097115124458952332 0.097115124458785826 0 0.073316820370859764 0.18109440156403181 0.061562519669449138 0.059434890704512577 0.14640236215318811 0 0.097115124458952332 0.097115124458785826 0 0.17009619771987891 0.16806798983665569 0 0.17009619771987891 0.16806798983665569 0.07291569808422331 0.1826984339026739 0.06727569697794418 0.1289262165046228 0.1094244395929215 0.109406571350707 0.1307313911228048 0.2541486156333484 0.12772207903554619 0.061562519669449138 0.059434890704512577 0.14640236215318811 0 0.097115124458952332 0.097115124458785826 0 0.17009619771987891 0.16806798983665569 0.1289262165046228 0.1094244395929215 0.109406571350707 0 0.097115124458952332 0.097115124458785826 0 0.17009619771987891 0.16806798983665569 0.07291569808422331 0.1826984339026739 0.06727569697794418 0.1289262165046228 0.1094244395929215 0.109406571350707 0 0.17009619771987891 0.16806798983665569 0.08935723244776661 0.086883235764133676 0.21915734371072179 0.098222284833748397 0.2197439980240854 0.23619361920574031 0 0.099372779675467607 0.26528889352553142 0 0.17009619771987891 0.16806798983665569 0.1289262165046228 0.1094244395929215 0.109406571350707 0.08935723244776661 0.086883235764133676 0.21915734371072179 0.098222284833748397 0.2197439980240854 0.23619361920574031 0 0.073316820370859764 0.18109440156403181 0 0.17009619771987891 0.16806798983665569 0.08935723244776661 0.086883235764133676 0.21915734371072179 0 0.099372779675467607 0.26528889352553142 0 0.073316820370859764 0.18109440156403181 0.061562519669449138 0.059434890704512577 0.14640236215318811 0 0.17009619771987891 0.16806798983665569 0.08935723244776661 0.086883235764133676 0.21915734371072179 0.061562519669449138 0.059434890704512577 0.14640236215318811 0 0.17009619771987891 0.16806798983665569 0.1289262165046228 0.1094244395929215 0.109406571350707 0.08935723244776661 0.086883235764133676 0.21915734371072179 0 0.17009619771987891 0.16806798983665569 0.098222284833748397 0.2197439980240854 0.23619361920574031 0 0.2134112930234815 0.28239564278595841 0 0.28674406688656878 0.2119407166408592 0 0.17009619771987891 0.16806798983665569 0.07291569808422331 0.1826984339026739 0.06727569697794418 0.1307313911228048 0.2541486156333484 0.12772207903554619 0 0.26324808216617729 0.1061976352567853 0 0.097115124458952332 0.097115124458785826 0 0.17009619771987891 0.16806798983665569 0 0.1810918808693138 0.074276149910445372 0.07291569808422331 0.1826984339026739 0.06727569697794418 0 0.17009619771987891 0.16806798983665569 0 0.1810918808693138 0.074276149910445372 0.07291569808422331 0.1826984339026739 0.06727569697794418 0 0.26324808216617729 0.1061976352567853 0 0.1810918808693138 0.074276149910445372 0.07291569808422331 0.1826984339026739 0.06727569697794418 0 0.25000000000104039 0 0 0.26324808216617729 0.1061976352567853 0 0.1810918808693138 0.074276149910445372 0 0.12500000000052011 0 0.07291569808422331 0.1826984339026739 0.06727569697794418 0 0.25000000000104039 0 0 0.097115124458952332 0.097115124458785826 0 0.1810918808693138 0.074276149910445372 0 0.12500000000052011 0 0.07291569808422331 0.1826984339026739 0.06727569697794418 0.06323106138816019 0.062142082272951933 0.059406074834875783 0 0.12500000000052011 0 0.07291569808422331 0.1826984339026739 0.06727569697794418 0.097115124458785826 0.097115124458952332 0 0.06323106138816019 0.062142082272951933 0.059406074834875783 0 0.097115124458952332 0.097115124458785826 0 0.12500000000052011 0 0.07291569808422331 0.1826984339026739 0.06727569697794418 0.06323106138816019 0.062142082272951933 0.059406074834875783 0 0.097115124458952332 0.097115124458785826 0.07291569808422331 0.1826984339026739 0.06727569697794418 0.1289262165046228 0.1094244395929215 0.109406571350707 0 0.12500000000052011 0 0.074276107326000582 0.18109175666468211 0 0.07291569808422331 0.1826984339026739 0.06727569697794418 0.097115124458785826 0.097115124458952332 0 0.074276107326000582 0.18109175666468211 0 0.07291569808422331 0.1826984339026739 0.06727569697794418 0.10619742233455839 0.26324746114302949 0 0 0.25000000000104039 0 0 0.12500000000052011 0 0.074276107326000582 0.18109175666468211 0 0.07291569808422331 0.1826984339026739 0.06727569697794418 0 0.25000000000104039 0 0.07291569808422331 0.1826984339026739 0.06727569697794418 0.20025673477961189 0.19140754843858721 0.073010113208307331 0.1307313911228048 0.2541486156333484 0.12772207903554619 0.10619742233455839 0.26324746114302949 0 0.07291569808422331 0.1826984339026739 0.06727569697794418 0.1680679898366586 0.17009619771986781 0 0.20025673477961189 0.19140754843858721 0.073010113208307331 0.1289262165046228 0.1094244395929215 0.109406571350707 0.07291569808422331 0.1826984339026739 0.06727569697794418 0.1680679898366586 0.17009619771986781 0 0.20025673477961189 0.19140754843858721 0.073010113208307331 0.10619742233455839 0.26324746114302949 0 0.074276107326000582 0.18109175666468211 0 0.07291569808422331 0.1826984339026739 0.06727569697794418 0.097115124458785826 0.097115124458952332 0 0.1680679898366586 0.17009619771986781 0 0.074276107326000582 0.18109175666468211 0 0.07291569808422331 0.1826984339026739 0.06727569697794418 0.1680679898366586 0.17009619771986781 0 0.10619742233455839 0.26324746114302949 0 0.06323106138816019 0.062142082272951933 0.059406074834875783 0.07291569808422331 0.1826984339026739 0.06727569697794418 0.097115124458785826 0.097115124458952332 0 0.1289262165046228 0.1094244395929215 0.109406571350707 0.07291569808422331 0.1826984339026739 0.06727569697794418 0.097115124458785826 0.097115124458952332 0 0.1680679898366586 0.17009619771986781 0 0.1289262165046228 0.1094244395929215 0.109406571350707 0.097115124458785826 0.097115124458952332 0 0.1680679898366586 0.17009619771986781 0 0.1289262165046228 0.1094244395929215 0.109406571350707 0.18109440156403669 0.073316820370859112 0 0.1680679898366586 0.17009619771986781 0 0.22141769647606749 0.080862311673354156 0.083931555580687142 0.18109440156403669 0.073316820370859112 0 0.26528889352555279 0.099372779675475503 0 0.1680679898366586 0.17009619771986781 0 0.20025673477961189 0.19140754843858721 0.073010113208307331 0.1289262165046228 0.1094244395929215 0.109406571350707 0.22141769647606749 0.080862311673354156 0.083931555580687142 0.1680679898366586 0.17009619771986781 0 0.1289262165046228 0.1094244395929215 0.109406571350707 0.22141769647606749 0.080862311673354156 0.083931555580687142 0.18109440156403669 0.073316820370859112 0 0.1680679898366586 0.17009619771986781 0 0.20025673477961189 0.19140754843858721 0.073010113208307331 0.22141769647606749 0.080862311673354156 0.083931555580687142 0.26528889352555279 0.099372779675475503 0 0.1680679898366586 0.17009619771986781 0 0.20025673477961189 0.19140754843858721 0.073010113208307331 0.28238962436783799 0.21335287803006631 0 0.21199123149808141 0.28671388592782698 0 0.20670689941440221 0.17652359486693919 0.1821174131237745 0.1289262165046228 0.1094244395929215 0.109406571350707 0.098222284833748397 0.2197439980240854 0.23619361920574031 0.1307313911228048 0.2541486156333484 0.12772207903554619 0 0.17009619771987891 0.16806798983665569 0.1289262165046228 0.1094244395929215 0.109406571350707 0.098222284833748397 0.2197439980240854 0.23619361920574031 0.1307313911228048 0.2541486156333484 0.12772207903554619 0.20025673477961189 0.19140754843858721 0.07301011320
[...]
<PointData Scalars="" Vectors="displacement," Tensors="">
<DataArray type="Float64" Name="displacement" NumberOfComponents="3" format="ascii">
0.001020493077151797 -0.00082237642709010676 -0.00092825598128750027 0.00091424484926993111 -0.0006770055499476967 -0.0008118776107912428 0.00091769602376506432 -0.00082237642709010535 -0.00081222398362602974 0.00094062788808280064 -0.00074251123802124427 -0.00074796059098262719 0.001020493077151797 -0.00082237642709010676 -0.00092825598128750027 0.00091424484926993111 -0.0006770055499476967 -0.0008118776107912428 0.00094062788808280064 -0.00074251123802124427 -0.00074796059098262719 0.0010204930771518001 -0.00071957937370398337 -0.00081222398362680017 0.001020493077151797 -0.00082237642709010676 -0.00092825598128750027 0.00091424484926993111 -0.0006770055499476967 -0.0008118776107912428 0.00090446107949109411 -0.00062590842475145222 -0.00092825598128750038 0.00093034538199938488 -0.00058987112202644857 -0.00083810828613509105 0.001020493077151797 -0.00082237642709010676 -0.00092825598128750027 0.00091424484926993111 -0.0006770055499476967 -0.0008118776107912428 0.00093034538199938488 -0.00058987112202644857 -0.00083810828613509105 0.0010204930771518001 -0.00071957937370398337 -0.00081222398362680017 0.001020493077151797 -0.00082237642709010676 -0.00092825598128750027 0.00091424484926993111 -0.0006770055499476967 -0.0008118776107912428 0.00085048019293046688 -0.00066973631109552975 -0.00083810828613495737 0.00091769602376506432 -0.00082237642709010535 -0.00081222398362602974 0.001020493077151797 -0.00082237642709010676 -0.00092825598128750027 0.00091424484926993111 -0.0006770055499476967 -0.0008118776107912428 0.00090446107949109411 -0.00062590842475145222 -0.00092825598128750038 0.00085048019293046688 -0.00066973631109552975 -0.00083810828613495737 0.00090446107949109411 -0.00062590842475145222 -0.00092825598128750038 0.00085113546280478499 -0.00047595155799230656 -0.0008609095233772507 0.0008357163557464216 -0.00054164182508206434 -0.0008159394113875628 0.00093034538199938488 -0.00058987112202644857 -0.00083810828613509105 0.00090446107949109411 -0.00062590842475145222 -0.00092825598128750038 0.00085113546280478499 -0.00047595155799230656 -0.0008609095233772507 0.0008357163557464216 -0.00054164182508206434 -0.0008159394113875628 0.00078842908183052174 -0.00042944042241301479 -0.0009282559812875033 0.00090446107949109411 -0.00062590842475145222 -0.00092825598128750038 0.00079209709094012182 -0.00053774238460959798 -0.00086019920424923598 0.0008357163557464216 -0.00054164182508206434 -0.0008159394113875628 0.00078842908183052174 -0.00042944042241301479 -0.0009282559812875033 0.00085113546280478499 -0.00047595155799230656 -0.0008609095233772507 0.0008357163557464216 -0.00054164182508206434 -0.0008159394113875628 0.00074560823700751987 -0.00040443190140086944 -0.00076465971252488057 0.00078842908183052174 -0.00042944042241301479 -0.0009282559812875033 0.00079209709094012182 -0.00053774238460959798 -0.00086019920424923598 0.0008357163557464216 -0.00054164182508206434 -0.0008159394113875628 0.00074560823700751987 -0.00040443190140086944 -0.00076465971252488057 0.00078842908183052174 -0.00042944042241301479 -0.0009282559812875033 0.00091424484926993111 -0.0006770055499476967 -0.0008118776107912428 0.00090446107949109411 -0.00062590842475145222 -0.00092825598128750038 0.0008357163557464216 -0.00054164182508206434 -0.0008159394113875628 0.00093034538199938488 -0.00058987112202644857 -0.00083810828613509105 0.00091424484926993111 -0.0006770055499476967 -0.0008118776107912428 0.0008357163557464216 -0.00054164182508206434 -0.0008159394113875628 0.00085048019293046688 -0.00066973631109552975 -0.00083810828613495737 0.00082894769323456699 -0.00054439142167447341 -0.00070700555912113776 0.00091424484926993111 -0.0006770055499476967 -0.0008118776107912428 0.00090446107949109411 -0.00062590842475145222 -0.00092825598128750038 0.0008357163557464216 -0.00054164182508206434 -0.0008159394113875628 0.00085048019293046688 -0.00066973631109552975 -0.00083810828613495737 0.00090446107949109411 -0.00062590842475145222 -0.00092825598128750038 0.00079209709094012182 -0.00053774238460959798 -0.00086019920424923598 0.0008357163557464216 -0.00054164182508206434 -0.0008159394113875628 0.00085048019293046688 -0.00066973631109552975 -0.00083810828613495737 0.00079209709094012182 -0.00053774238460959798 -0.00086019920424923598 0.0008357163557464216 -0.00054164182508206434 -0.0008159394113875628 0.00085048019293046688 -0.00066973631109552975 -0.00083810828613495737 0.00072459985698044476 -0.00055821656932738108 -0.00077036316835968951 0.00072459985698044476 -0.00055821656932738108 -0.00077036316835968951 0.00080779712372884593 -0.00065667210149102562 -0.00069098063436898855 0.00082894769323456699 -0.00054439142167447341 -0.00070700555912113776 0.00069292846287006703 -0.00051411959896838048 -0.000570988812938042 0.0008357163557464216 -0.00054164182508206434 -0.0008159394113875628 0.00085048019293046688 -0.00066973631109552975 -0.00083810828613495737 0.00072459985698044476 -0.00055821656932738108 -0.00077036316835968951 0.00082894769323456699 -0.00054439142167447341 -0.00070700555912113776 0.00085048019293046688 -0.00066973631109552975 -0.00083810828613495737 0.00072459985698044476 -0.00055821656932738108 -0.00077036316835968951 0.00080779712372884593 -0.00065667210149102562 -0.00069098063436898855 0.00082894769323456699 -0.00054439142167447341 -0.00070700555912113776 0.00072459985698044476 -0.00055821656932738108 -0.00077036316835968951 0.00074560823700751987 -0.00040443190140086944 -0.00076465971252488057 0.00062053265341255835 -0.000370364827183292 -0.00063310187737688648 0.00069251524346807848 -0.00040541019546061285 -0.00083601260417653987 0.00072459985698044476 -0.00055821656932738108 -0.00077036316835968951 0.00082894769323456699 -0.00054439142167447341 -0.00070700555912113776 0.00074560823700751987 -0.00040443190140086944 -0.00076465971252488057 0.00062053265341255835 -0.000370364827183292 -0.00063310187737688648 0.00079209709094012182 -0.00053774238460959798 -0.00086019920424923598 0.00072459985698044476 -0.00055821656932738108 -0.00077036316835968951 0.00074560823700751987 -0.00040443190140086944 -0.00076465971252488057 0.00069251524346807848 -0.00040541019546061285 -0.00083601260417653987 0.00079209709094012182 -0.00053774238460959798 -0.00086019920424923598 0.0008357163557464216 -0.00054164182508206434 -0.0008159394113875628 0.00072459985698044476 -0.00055821656932738108 -0.00077036316835968951 0.00074560823700751987 -0.00040443190140086944 -0.00076465971252488057 0.0008357163557464216 -0.00054164182508206434 -0.0008159394113875628 0.00072459985698044476 -0.00055821656932738108 -0.00077036316835968951 0.00082894769323456699 -0.00054439142167447341 -0.00070700555912113776 0.00074560823700751987 -0.00040443190140086944 -0.00076465971252488057 0.00072459985698044476 -0.00055821656932738108 -0.00077036316835968951 0.00062053265341255835 -0.000370364827183292 -0.00063310187737688648 0.00058285321598885954 -0.00037852276463093171 -0.00073015567206405558 0.00058794627803604308 -0.0004892598733882875 -0.0006620840861012075 0.00072459985698044476 -0.00055821656932738108 -0.00077036316835968951 0.00080779712372884593 -0.00065667210149102562 -0.00069098063436898855 0.00069292846287006703 -0.00051411959896838048 -0.000570988812938042 0.00070542546977588624 -0.00065546092907388604 -0.00068389437445416721 0.00085048019293046688 -0.00066973631109552975 -0.00083810828613495737 0.00072459985698044476 -0.00055821656932738108 -0.00077036316835968951 0.00080262010276603817 -0.00070563333273539978 -0.00076015635970788132 0.00080779712372884593 -0.00065667210149102562 -0.00069098063436898855 0.00072459985698044476 -0.00055821656932738108 -0.00077036316835968951 0.00080262010276603817 -0.00070563333273539978 -0.00076015635970788132 0.00080779712372884593 -0.00065667210149102562 -0.00069098063436898855 0.00070542546977588624 -0.00065546092907388604 -0.00068389437445416721 0.00080262010276603817 -0.00070563333273539978 -0.00076015635970788132 0.00080779712372884593 -0.00065667210149102562 -0.00069098063436898855 0.00081489897037833291 -0.0008223764270901021 -0.00069619198596455119 0.00070542546977588624 -0.00065546092907388604 -0.00068389437445416721 0.00080262010276603817 -0.00070563333273539978 -0.00076015635970788132 0.00091769602376506432 -0.00082237642709010535 -0.00081222398362602974 0.00080779712372884593 -0.00065667210149102562 -0.00069098063436898855 0.00081489897037833291 -0.0008223764270901021 -0.00069619198596455119 0.00085048019293046688 -0.00066973631109552975 -0.00083810828613495737 0.00080262010276603817 -0.00070563333273539978 -0.00076015635970788132 0.00091769602376506432 -0.00082237642709010535 -0.00081222398362602974 0.00080779712372884593 -0.00065667210149102562 -0.00069098063436898855 0.00091424484926993111 -0.0006770055499476967 -0.0008118776107912428 0.00091769602376506432 -0.00082237642709010535 -0.00081222398362602974 0.00080779712372884593 -0.00065667210149102562 -0.00069098063436898855 0.00094062788808280064 -0.00074251123802124427 -0.00074796059098262719 0.00091424484926993111 -0.0006770055499476967 -0.0008118776107912428 0.00085048019293046688 -0.00066973631109552975 -0.00083810828613495737 0.00091769602376506432 -0.00082237642709010535 -0.00081222398362602974 0.00080779712372884593 -0.00065667210149102562 -0.00069098063436898855 0.00091424484926993111 -0.0006770055499476967 -0.0008118776107912428 0.00085048019293046688 -0.00066973631109552975 -0.00083810828613495737 0.00080779712372884593 -0.00065667210149102562 -0.00069098063436898855 0.00082894769323456699 -0.00054439142167447341 -0.00070700555912113776 0.00091769602376506432 -0.00082237642709010535 -0.00081222398362602974 0.00087156748533036277 -0.00076129350732916242 -0.00069120923410947738 0.00080779712372884593 -0.00065667210149102562 -0.00069098063436898855 0.00094062788808280064 -0.00074251123802124427 -0.00074796059098262719 0.00087156748533036277 -0.00076129350732916242 -0.00069120923410947738 0.00080779712372884593 -0.00065667210149102562 -0.00069098063436898855 0.00080400457061636371 -0.00073504217034439428 -0.00058531655844327091 0.00081489897037833291 -0.0008223764270901021 -0.00069619198596455119 0.00091769602376506432 -0.00082237642709010535 -0.00081222398362602974 0.00087156748533036277 -0.00076129350732916242 -0.00069120923410947738 0.00080779712372884593 -0.00065667210149102562 -0.00069098063436898855 0.00081489897037833291 -0.0008223764270901021 -0.00069619198596455119 0.00080779712372884593 -0.00065667210149102562 -0.00069098063436898855 0.00079531194706865759 -0.00054293680030059819 -0.00056469126773348532 0.00069292846287006703 -0.00051411959896838048 -0.000570988812938042 0.00080400457061636371 -0.00073504217034439428 -0.00058531655844327091 0.00080779712372884593 -0.00065667210149102562 -0.00069098063436898855 0.00088060997380926562 -0.00068416127409995559 -0.00061435305153089174 0.00079531194706865759 -0.00054293680030059819 -0.00056469126773348532 0.00082894769323456699 -0.00054439142167447341 -0.00070700555912113776 0.00080779712372884593 -0.00065667210149102562 -0.00069098063436898855 0.00088060997380926562 -0.00068416127409995559 -0.00061435305153089174 0.00079531194706865759 -0.00054293680030059819 -0.00056469126773348532 0.00080400457061636371 -0.00073504217034439428 -0.00058531655844327091 0.00087156748533036277 -0.00076129350732916242 -0.00069120923410947738 0.00080779712372884593 -0.00065667210149102562 -0.00069098063436898855 0.00094062788808280064 -0.00074251123802124427 -0.00074796059098262719 0.00088060997380926562 -0.00068416127409995559 -0.00061435305153089174 0.00087156748533036277 -0.00076129350732916242 -0.00069120923410947738 0.00080779712372884593 -0.00065667210149102562 -0.00069098063436898855 0.00088060997380926562 -0.00068416127409995559 -0.00061435305153089174 0.00080400457061636371 -0.00073504217034439428 -0.00058531655844327091 0.00091424484926993111 -0.0006770055499476967 -0.0008118776107912428 0.00080779712372884593 -0.00065667210149102562 -0.00069098063436898855 0.00094062788808280064 -0.00074251123802124427 -0.00074796059098262719 0.00082894769323456699 -0.00054439142167447341 -0.00070700555912113776 0.00080779712372884593 -0.00065667210149102562 -0.00069098063436898855 0.00094062788808280064 -0.00074251123802124427 -0.00074796059098262719 0.00088060997380926562 -0.00068416127409995559 -0.00061435305153089174 0.00082894769323456699 -0.00054439142167447341 -0.00070700555912113776 0.00094062788808280064 -0.00074251123802124427 -0.00074796059098262719 0.00088060997380926562 -0.00068416127409995559 -0.00061435305153089174 0.00082894769323456699 -0.00054439142167447341 -0.00070700555912113776 0.00096019905236958177 -0.00067344866016578575 -0.00069209724281978069 0.00088060997380926562 -0.00068416127409995559 -0.00061435305153089174 0.00087608384970507187 -0.00050836881250237141 -0.00064766275569918077 0.00096019905236958177 -0.00067344866016578575 -0.00069209724281978069 0.00093877124565223534 -0.00060420909468577569 -0.00058975660199235471 0.00088060997380926562 -0.00068416127409995559 -0.00061435305153089174 0.00079531194706865759 -0.00054293680030059819 -0.00056469126773348532 0.00082894769323456699 -0.00054439142167447341 -0.00070700555912113776 0.00087608384970507187 -0.00050836881250237141 -0.00064766275569918077 0.00088060997380926562 -0.00068416127409995559 -0.00061435305153089174 0.00082894769323456699 -0.00054439142167447341 -0.00070700555912113776 0.00087608384970507187 -0.00050836881250237141 -0.00064766275569918077 0.00096019905236958177 -0.00067344866016578575 -0.00069209724281978069 0.00088060997380926562 -0.00068416127409995559 -0.00061435305153089174 0.00079531194706865759 -0.00054293680030059819 -0.00056469126773348532 0.00087608384970507187 -0.00050836881250237141 -0.00064766275569918077 0.00093877124565223534 -0.00060420909468577569 -0.00058975660199235471 0.00088060997380926562 -0.00068416127409995559 -0.00061435305153089174 0.00079531194706865759 -0.00054293680030059819 -0.00056469126773348532 0.00084503669960797015 -0.00059014585675506493 -0.00046808003825817913 0.00078470633604525773 -0.00064803983555620657 -0.00046532997313813307 0.00070627265587925182 -0.00036614359091413959 -0.00057251998275904999 0.00082894769323456699 -0.00054439142167447341 -0.00070700555912113776 0.00062053265341255835 -0.000370364827183292 -0.00063310187737688648 0.00069292846287006703 -0.00051411959896838048 -0.000570988812938042 0.00072459985698044476 -0.00055821656932738108 -0.00077036316835968951 0.00082894769323456699 -0.00054439142167447341 -0.00070700555912113776 0.00062053265341255835 -0.000370364827183292 -0.00063310187737688648 0.00069292846287006703 -0.00051411959896838048 -0.000570988812938042 0.00079531194706865759 -0.00054293680030059819 -0.00056469126773348532 0.00070627265587925182 -0.00036614359091413959 -0.00057251998275904999 0.00082894769323456699 -0.00054439142167447341 -0.00070700555912113776 0.00069292846287006703 -0.00051411959896838048 -0.000570988812938042 0.00079531194706865759 -0.00054293680030059819 -0.00056469126773348532 0.00070627265587925182 -0.00036614359091413959 -0.00057251998275904999 0.00072805509902487046 -0.00043961173008185886 -0.00045018798196487183 0.00069292846287006703 -0.00051411959896838048 -0.000570988812938042 0.00080779712372884593 -0.00065667210149102562 -0.00069098063436898855 0.00079531194706865759 -0.00054293680030059819 -0.00056469126773348532 0.00082894769323456699 -0.00054439142167447341 -0.00070700555912113776 0.00069292846287006703 -0.00051411959896838048 -0.000570988812938042 0.00070627265587925182 -0.00036614359091413959 -0.00057251998275904999 0.00082894769323456699 -0.00054439142167447341 -0.00070700555912113776 0.00074560823700751987 -0.00040443190140086944 -0.00076465971252488057 0.00077414984898789671 -0.0003363728386093008 -0.00066202594214033515 0.00070627265587925182 -0.00036614359091413959 -0.00057251998275904999 0.00082894769323456699 -0.00054439142167447341 -0.00070700555912113776 0.00074560823700751987 -0.00040443190140086944 -0.00076465971252488057 0.00062053265341255835 -0.000370364827183292 -0.00063310187737688648 0.00070627265587925182 -0.00036614359091413959 -0.00057251998275904999 0.00082894769323456699 -0.00054439142167447341 -0.00070700555912113776 0.00077414984898789671 -0.0003363728386093008 -0.00066202594214033515 0.00087608384970507187 -0.00050836881250237141 -0.00064766275569918077 0.00079531194706865759 -0.00054293680030059819 -0.00056469126773348532 0.00070627265587925182 -0.00036614359091413959 -0.00057251998275904999 0.00082894769323456699 -0.00054439142167447341 -0.00070700555912113776 0.00087608384970507187 -0.00050836881250237141 -0.00064766275569918077 0.00082894769323456699 -0.00054439142167447341 -0.00070700555912113776 0.00077414984898789671 -0.0003363728386093008 -0.00066202594214033515 0.00086260026422403169 -0.00041681359272808833 -0.00077224586445883401 0.00087608384970507187 -0.00050836881250237141 -0.00064766275569918077 0.00086260026422403169 -0.00041681359272808833 -0.00077224586445883401 0.0009524363001135824 -0.0005582133862769179 -0.00076015401985807089 0.00087608384970507187 -0.00050836881250237141 -0.00064766275569918077 0.00092824970004088357 -0.00044802052260810245 -0.00068199997910339968 0.00077414984898789671 -0.0003363728386093008 -0.00066202594214033515 0.00086260026422403169 -0.00041681359272808833 -0.00077224586445883401 0.00087608384970507187 -0.00050836881250237141 -0.00064766275569918077 0.00092824970004088357 -0.00044802052260810245 -0.00068199997910339968 0.00082894769323456699 -0.00054439142167447341 -0.00070700555912113776 0.00086260026422403169 -0.00041681359272808833 -0.00077224586445883401 0.0009524363001135824 -0.0005582133862769179 -0.00076015401985807089 0.00087608384970507187 -0.00050836881250237141 -0.00064766275569918077 0.00091424484926993111 -0.0006770055499476967 -0.0008118776107912428 0.0008357163557464216 -0.00054164182508206434 -0.0008159394113875628 0.00082894769323456699 -0.00054439142167447341 -0.00070700555912113776 0.00093034538199938488 -0.00058987112202644857 -0.00083810828613509105 0.0008357163557464216 -0.00054164182508206434 -0.0008159394113875628 0.00082894769323456699 -0.00054439142167447341 -0.00070700555912113776 0.00086260026422403169 -0.00041681359272808833 -0.00077224586445883401 0.00093034538199938488 -0.00058987112202644857 -0.00083810828613509105 0.00082894769323456699 -0.00054439142167447341 -0.00070700555912113776 0.00086260026422403169 -0.00041681359272808833 -0.00077224586445883401 0.00093034538199938488 -0.00058987112202644857 -0.00083810828613509105 0.0009524363001135824 -0.0005582133862769179 -0.00076015401985807089 0.0008357163557464216 -0.00054164182508206434 -0.0008159394113875628 0.00082894769323456699 -0.00054439142167447341 -0.00070700555912113776 0.00074560823700751987 -0.00040443190140086944 -0.00076465971252488057 0.00086260026422403169 -0.00041681359272808833 -0.00077224586445883401 0.00085113546280478499 -0.00047595155799230656 -0.0008609095233772507 0.0008357163557464216 -0.00054164182508206434 -0.0008159394113875628 0.00074560823700751987 -0.00040443190140086944 -0.00076465971252488057 0.00086260026422403169 -0.00041681359272808833 -0.00077224586445883401 0.00085113546280478499 -0.00047595155799230656 -0.0008609095233772507 0.00074560823700751987 -0.00040443190140086944 -0.00076465971252488057 0.00086260026422403169 -0.00041681359272808833 -0.00077224586445883401 0.00076984150647889328 -0.0003177242280425477 -0.00083768150371732052 0.00082894769323456699 -0.00054439142167447341 -0.00070700555912113776 0.00074560823700751987 -0.00040443190140086944 -0.00076465971252488057 0.00077414984898789671 -0.0003363728386093008 -0.00066202594214033515 0.00086260026422403169 -0.00041681359272808833 -0.00077224586445883401 0.00074560823700751987 -0.00040443190140086944 -0.00076465971252488057 0.00077414984898789671 -0.00033637283