<?xml version="1.0"?>
<VTKFile type="UnstructuredGrid" version="0.1" byte_order="LittleEndian">
<UnstructuredGrid>
<Piece NumberOfPoints="21736" NumberOfCells="5434">
<Points>
<DataArray type="Float64" NumberOfComponents="3" format="ascii">
0 0 0 0.06323106138816019 0.062142082272951933 0.059406074834875783 0 0.12500000000052011 0 0.097115124458785826 0.097115124458952332 0 0 0 0 0.06323106138816019 0.062142082272951933 0.059406074834875783 0.097115124458785826 0.097115124458952332 0 0.12499999999977381 0 0 0 0 0 0.06323106138816019 0.062142082272951933 0.059406074834875783 0 0 0.12499999999977381 0.097115124458877891 0 0.097115124458877891 0 0 0 0.06323106138816019 0.062142082272951933 0.059406074834875783 0.097115124458877891 0 0.097115124458877891 0.12499999999977381 0 0 0 0 0 0.06323106138816019 0.062142082272951933 0.059406074834875783 0 0.097115124458952332 0.097115124458785826 0 0.12500000000052011 0 0 0 0 0.06323106138816019 0.062142082272951933 0.059406074834875783 0 0 0.12499999999977381 0 0.097115124458952332 0.097115124458785826 0 0 0.12499999999977381 0.072551601355543657 0 0.18244710269698541 0.061562519669449138 0.059434890704512577 0.14640236215318811 0.097115124458877891 0 0.097115124458877891 0 0 0.12499999999977381 0.072551601355543657 0 0.18244710269698541 0.061562519669449138 0.059434890704512577 0.14640236215318811 0 0 0.24999999999941239 0 0 0.12499999999977381 0 0.073316820370859764 0.18109440156403181 0.061562519669449138 0.059434890704512577 0.14640236215318811 0 0 0.24999999999941239 0.072551601355543657 0 0.18244710269698541 0.061562519669449138 0.059434890704512577 0.14640236215318811 0.08935723244776661 0.086883235764133676 0.21915734371072179 0 0 0.24999999999941239 0 0.073316820370859764 0.18109440156403181 0.061562519669449138 0.059434890704512577 0.14640236215318811 0.08935723244776661 0.086883235764133676 0.21915734371072179 0 0 0.24999999999941239 0.06323106138816019 0.062142082272951933 0.059406074834875783 0 0 0.12499999999977381 0.061562519669449138 0.059434890704512577 0.14640236215318811 0.097115124458877891 0 0.097115124458877891 0.06323106138816019 0.062142082272951933 0.059406074834875783 0.061562519669449138 0.059434890704512577 0.14640236215318811 0 0.097115124458952332 0.097115124458785826 0.1289262165046228 0.1094244395929215 0.109406571350707 0.06323106138816019 0.062142082272951933 0.059406074834875783 0 0 0.12499999999977381 0.061562519669449138 0.059434890704512577 0.14640236215318811 0 0.097115124458952332 0.097115124458785826 0 0 0.12499999999977381 0 0.073316820370859764 0.18109440156403181 0.061562519669449138 0.059434890704512577 0.14640236215318811 0 0.097115124458952332 0.097115124458785826 0 0.073316820370859764 0.18109440156403181 0.061562519669449138 0.059434890704512577 0.14640236215318811 0 0.097115124458952332 0.097115124458785826 0 0.17009619771987891 0.16806798983665569 0 0.17009619771987891 0.16806798983665569 0.07291569808422331 0.1826984339026739 0.06727569697794418 0.1289262165046228 0.1094244395929215 0.109406571350707 0.1307313911228048 0.2541486156333484 0.12772207903554619 0.061562519669449138 0.059434890704512577 0.14640236215318811 0 0.097115124458952332 0.097115124458785826 0 0.17009619771987891 0.16806798983665569 0.1289262165046228 0.1094244395929215 0.109406571350707 0 0.097115124458952332 0.097115124458785826 0 0.17009619771987891 0.16806798983665569 0.07291569808422331 0.1826984339026739 0.06727569697794418 0.1289262165046228 0.1094244395929215 0.109406571350707 0 0.17009619771987891 0.16806798983665569 0.08935723244776661 0.086883235764133676 0.21915734371072179 0.098222284833748397 0.2197439980240854 0.23619361920574031 0 0.099372779675467607 0.26528889352553142 0 0.17009619771987891 0.16806798983665569 0.1289262165046228 0.1094244395929215 0.109406571350707 0.08935723244776661 0.086883235764133676 0.21915734371072179 0.098222284833748397 0.2197439980240854 0.23619361920574031 0 0.073316820370859764 0.18109440156403181 0 0.17009619771987891 0.16806798983665569 0.08935723244776661 0.086883235764133676 0.21915734371072179 0 0.099372779675467607 0.26528889352553142 0 0.073316820370859764 0.18109440156403181 0.061562519669449138 0.059434890704512577 0.14640236215318811 0 0.17009619771987891 0.16806798983665569 0.08935723244776661 0.086883235764133676 0.21915734371072179 0.061562519669449138 0.059434890704512577 0.14640236215318811 0 0.17009619771987891 0.16806798983665569 0.1289262165046228 0.1094244395929215 0.109406571350707 0.08935723244776661 0.086883235764133676 0.21915734371072179 0 0.17009619771987891 0.16806798983665569 0.098222284833748397 0.2197439980240854 0.23619361920574031 0 0.2134112930234815 0.28239564278595841 0 0.28674406688656878 0.2119407166408592 0 0.17009619771987891 0.16806798983665569 0.07291569808422331 0.1826984339026739 0.06727569697794418 0.1307313911228048 0.2541486156333484 0.12772207903554619 0 0.26324808216617729 0.1061976352567853 0 0.097115124458952332 0.097115124458785826 0 0.17009619771987891 0.16806798983665569 0 0.1810918808693138 0.074276149910445372 0.07291569808422331 0.1826984339026739 0.06727569697794418 0 0.17009619771987891 0.16806798983665569 0 0.1810918808693138 0.074276149910445372 0.07291569808422331 0.1826984339026739 0.06727569697794418 0 0.26324808216617729 0.1061976352567853 0 0.1810918808693138 0.074276149910445372 0.07291569808422331 0.1826984339026739 0.06727569697794418 0 0.25000000000104039 0 0 0.26324808216617729 0.1061976352567853 0 0.1810918808693138 0.074276149910445372 0 0.12500000000052011 0 0.07291569808422331 0.1826984339026739 0.06727569697794418 0 0.25000000000104039 0 0 0.097115124458952332 0.097115124458785826 0 0.1810918808693138 0.074276149910445372 0 0.12500000000052011 0 0.07291569808422331 0.1826984339026739 0.06727569697794418 0.06323106138816019 0.062142082272951933 0.059406074834875783 0 0.12500000000052011 0 0.07291569808422331 0.1826984339026739 0.06727569697794418 0.097115124458785826 0.097115124458952332 0 0.06323106138816019 0.062142082272951933 0.059406074834875783 0 0.097115124458952332 0.097115124458785826 0 0.12500000000052011 0 0.07291569808422331 0.1826984339026739 0.06727569697794418 0.06323106138816019 0.062142082272951933 0.059406074834875783 0 0.097115124458952332 0.097115124458785826 0.07291569808422331 0.1826984339026739 0.06727569697794418 0.1289262165046228 0.1094244395929215 0.109406571350707 0 0.12500000000052011 0 0.074276107326000582 0.18109175666468211 0 0.07291569808422331 0.1826984339026739 0.06727569697794418 0.097115124458785826 0.097115124458952332 0 0.074276107326000582 0.18109175666468211 0 0.07291569808422331 0.1826984339026739 0.06727569697794418 0.10619742233455839 0.26324746114302949 0 0 0.25000000000104039 0 0 0.12500000000052011 0 0.074276107326000582 0.18109175666468211 0 0.07291569808422331 0.1826984339026739 0.06727569697794418 0 0.25000000000104039 0 0.07291569808422331 0.1826984339026739 0.06727569697794418 0.20025673477961189 0.19140754843858721 0.073010113208307331 0.1307313911228048 0.2541486156333484 0.12772207903554619 0.10619742233455839 0.26324746114302949 0 0.07291569808422331 0.1826984339026739 0.06727569697794418 0.1680679898366586 0.17009619771986781 0 0.20025673477961189 0.19140754843858721 0.073010113208307331 0.1289262165046228 0.1094244395929215 0.109406571350707 0.07291569808422331 0.1826984339026739 0.06727569697794418 0.1680679898366586 0.17009619771986781 0 0.20025673477961189 0.19140754843858721 0.073010113208307331 0.10619742233455839 0.26324746114302949 0 0.074276107326000582 0.18109175666468211 0 0.07291569808422331 0.1826984339026739 0.06727569697794418 0.097115124458785826 0.097115124458952332 0 0.1680679898366586 0.17009619771986781 0 0.074276107326000582 0.18109175666468211 0 0.07291569808422331 0.1826984339026739 0.06727569697794418 0.1680679898366586 0.17009619771986781 0 0.10619742233455839 0.26324746114302949 0 0.06323106138816019 0.062142082272951933 0.059406074834875783 0.07291569808422331 0.1826984339026739 0.06727569697794418 0.097115124458785826 0.097115124458952332 0 0.1289262165046228 0.1094244395929215 0.109406571350707 0.07291569808422331 0.1826984339026739 0.06727569697794418 0.097115124458785826 0.097115124458952332 0 0.1680679898366586 0.17009619771986781 0 0.1289262165046228 0.1094244395929215 0.109406571350707 0.097115124458785826 0.097115124458952332 0 0.1680679898366586 0.17009619771986781 0 0.1289262165046228 0.1094244395929215 0.109406571350707 0.18109440156403669 0.073316820370859112 0 0.1680679898366586 0.17009619771986781 0 0.22141769647606749 0.080862311673354156 0.083931555580687142 0.18109440156403669 0.073316820370859112 0 0.26528889352555279 0.099372779675475503 0 0.1680679898366586 0.17009619771986781 0 0.20025673477961189 0.19140754843858721 0.073010113208307331 0.1289262165046228 0.1094244395929215 0.109406571350707 0.22141769647606749 0.080862311673354156 0.083931555580687142 0.1680679898366586 0.17009619771986781 0 0.1289262165046228 0.1094244395929215 0.109406571350707 0.22141769647606749 0.080862311673354156 0.083931555580687142 0.18109440156403669 0.073316820370859112 0 0.1680679898366586 0.17009619771986781 0 0.20025673477961189 0.19140754843858721 0.073010113208307331 0.22141769647606749 0.080862311673354156 0.083931555580687142 0.26528889352555279 0.099372779675475503 0 0.1680679898366586 0.17009619771986781 0 0.20025673477961189 0.19140754843858721 0.073010113208307331 0.28238962436783799 0.21335287803006631 0 0.21199123149808141 0.28671388592782698 0 0.20670689941440221 0.17652359486693919 0.1821174131237745 0.1289262165046228 0.1094244395929215 0.109406571350707 0.098222284833748397 0.2197439980240854 0.23619361920574031 0.1307313911228048 0.2541486156333484 0.12772207903554619 0 0.17009619771987891 0.16806798983665569 0.1289262165046228 0.1094244395929215 0.109406571350707 0.098222284833748397 0.2197439980240854 0.23619361920574031 0.1307313911228048 0.2541486156333484 0.12772207903554619 0.20025673477961189 0.19140754843858721 0.07301011320
[...]
<PointData Scalars="" Vectors="displacement," Tensors="">
<DataArray type="Float64" Name="displacement" NumberOfComponents="3" format="ascii">
0.0010205199773422077 -0.00082239195418803296 -0.00092826145646229331 0.00091427045931545179 -0.00067702042050918983 -0.0008118823995263097 0.00091772098306803617 -0.00082239195418803014 -0.00081222877440416928 0.00094065328035700948 -0.0007425252572029735 -0.00074796500271308915 0.0010205199773422077 -0.00082239195418803296 -0.00092826145646229331 0.00091427045931545179 -0.00067702042050918983 -0.0008118823995263097 0.00094065328035700948 -0.0007425252572029735 -0.00074796500271308915 0.0010205199773422066 -0.00071959295991447984 -0.00081222877440483596 0.0010205199773422077 -0.00082239195418803296 -0.00092826145646229331 0.00091427045931545179 -0.00067702042050918983 -0.0008118823995263097 0.00090448729528475643 -0.00062592463624602487 -0.00092826145646228756 0.00093037175046758666 -0.00058988567293030399 -0.00083811322958766922 0.0010205199773422077 -0.00082239195418803296 -0.00092826145646229331 0.00091427045931545179 -0.00067702042050918983 -0.0008118823995263097 0.00093037175046758666 -0.00058988567293030399 -0.00083811322958766922 0.0010205199773422066 -0.00071959295991447984 -0.00081222877440483596 0.0010205199773422077 -0.00082239195418803296 -0.00092826145646229331 0.00091427045931545179 -0.00067702042050918983 -0.0008118823995263097 0.00085050505348247972 -0.00066975236991558202 -0.00083811322958762162 0.00091772098306803617 -0.00082239195418803014 -0.00081222877440416928 0.0010205199773422077 -0.00082239195418803296 -0.00092826145646229331 0.00091427045931545179 -0.00067702042050918983 -0.0008118823995263097 0.00090448729528475643 -0.00062592463624602487 -0.00092826145646228756 0.00085050505348247972 -0.00066975236991558202 -0.00083811322958762162 0.00090448729528475643 -0.00062592463624602487 -0.00092826145646228756 0.00085116136406556092 -0.00047596695750378609 -0.00086091460131938811 0.00083574153150696613 -0.00054165719787091244 -0.00081594422408051996 0.00093037175046758666 -0.00058988567293030399 -0.00083811322958766922 0.00090448729528475643 -0.00062592463624602487 -0.00092826145646228756 0.00085116136406556092 -0.00047596695750378609 -0.00086091460131938811 0.00083574153150696613 -0.00054165719787091244 -0.00081594422408051996 0.00078845461322743461 -0.00042945731830423204 -0.00092826145646227943 0.00090448729528475643 -0.00062592463624602487 -0.00092826145646228756 0.00079212186120961319 -0.00053775890323073592 -0.00086020427800173507 0.00083574153150696613 -0.00054165719787091244 -0.00081594422408051996 0.00078845461322743461 -0.00042945731830423204 -0.00092826145646227943 0.00085116136406556092 -0.00047596695750378609 -0.00086091460131938811 0.00083574153150696613 -0.00054165719787091244 -0.00081594422408051996 0.00074563258822869219 -0.00040444724096456286 -0.00076466422275250196 0.00078845461322743461 -0.00042945731830423204 -0.00092826145646227943 0.00079212186120961319 -0.00053775890323073592 -0.00086020427800173507 0.00083574153150696613 -0.00054165719787091244 -0.00081594422408051996 0.00074563258822869219 -0.00040444724096456286 -0.00076466422275250196 0.00078845461322743461 -0.00042945731830423204 -0.00092826145646227943 0.00091427045931545179 -0.00067702042050918983 -0.0008118823995263097 0.00090448729528475643 -0.00062592463624602487 -0.00092826145646228756 0.00083574153150696613 -0.00054165719787091244 -0.00081594422408051996 0.00093037175046758666 -0.00058988567293030399 -0.00083811322958766922 0.00091427045931545179 -0.00067702042050918983 -0.0008118823995263097 0.00083574153150696613 -0.00054165719787091244 -0.00081594422408051996 0.00085050505348247972 -0.00066975236991558202 -0.00083811322958762162 0.00082897229536079797 -0.00054440554594213609 -0.0007070097292846962 0.00091427045931545179 -0.00067702042050918983 -0.0008118823995263097 0.00090448729528475643 -0.00062592463624602487 -0.00092826145646228756 0.00083574153150696613 -0.00054165719787091244 -0.00081594422408051996 0.00085050505348247972 -0.00066975236991558202 -0.00083811322958762162 0.00090448729528475643 -0.00062592463624602487 -0.00092826145646228756 0.00079212186120961319 -0.00053775890323073592 -0.00086020427800173507 0.00083574153150696613 -0.00054165719787091244 -0.00081594422408051996 0.00085050505348247972 -0.00066975236991558202 -0.00083811322958762162 0.00079212186120961319 -0.00053775890323073592 -0.00086020427800173507 0.00083574153150696613 -0.00054165719787091244 -0.00081594422408051996 0.00085050505348247972 -0.00066975236991558202 -0.00083811322958762162 0.00072462319586878048 -0.00055823301662665447 -0.00077036771222833717 0.00072462319586878048 -0.00055823301662665447 -0.00077036771222833717 0.00080782081879634713 -0.00065668686476574444 -0.00069098471001207643 0.00082897229536079797 -0.00054440554594213609 -0.0007070097292846962 0.00069295071756902494 -0.00051413379548748497 -0.00057099218082804219 0.00083574153150696613 -0.00054165719787091244 -0.00081594422408051996 0.00085050505348247972 -0.00066975236991558202 -0.00083811322958762162 0.00072462319586878048 -0.00055823301662665447 -0.00077036771222833717 0.00082897229536079797 -0.00054440554594213609 -0.0007070097292846962 0.00085050505348247972 -0.00066975236991558202 -0.00083811322958762162 0.00072462319586878048 -0.00055823301662665447 -0.00077036771222833717 0.00080782081879634713 -0.00065668686476574444 -0.00069098471001207643 0.00082897229536079797 -0.00054440554594213609 -0.0007070097292846962 0.00072462319586878048 -0.00055823301662665447 -0.00077036771222833717 0.00074563258822869219 -0.00040444724096456286 -0.00076466422275250196 0.00062055484841488191 -0.00037038012237498608 -0.00063310561163113649 0.00069253914818460222 -0.00040542717506116791 -0.00083601753526814598 0.00072462319586878048 -0.00055823301662665447 -0.00077036771222833717 0.00082897229536079797 -0.00054440554594213609 -0.0007070097292846962 0.00074563258822869219 -0.00040444724096456286 -0.00076466422275250196 0.00062055484841488191 -0.00037038012237498608 -0.00063310561163113649 0.00079212186120961319 -0.00053775890323073592 -0.00086020427800173507 0.00072462319586878048 -0.00055823301662665447 -0.00077036771222833717 0.00074563258822869219 -0.00040444724096456286 -0.00076466422275250196 0.00069253914818460222 -0.00040542717506116791 -0.00083601753526814598 0.00079212186120961319 -0.00053775890323073592 -0.00086020427800173507 0.00083574153150696613 -0.00054165719787091244 -0.00081594422408051996 0.00072462319586878048 -0.00055823301662665447 -0.00077036771222833717 0.00074563258822869219 -0.00040444724096456286 -0.00076466422275250196 0.00083574153150696613 -0.00054165719787091244 -0.00081594422408051996 0.00072462319586878048 -0.00055823301662665447 -0.00077036771222833717 0.00082897229536079797 -0.00054440554594213609 -0.0007070097292846962 0.00074563258822869219 -0.00040444724096456286 -0.00076466422275250196 0.00072462319586878048 -0.00055823301662665447 -0.00077036771222833717 0.00062055484841488191 -0.00037038012237498608 -0.00063310561163113649 0.00058287525635560846 -0.00037853983789389115 -0.00073015997877506618 0.00058796756551049683 -0.00048927656089832743 -0.00066208799130258462 0.00072462319586878048 -0.00055823301662665447 -0.00077036771222833717 0.00080782081879634713 -0.00065668686476574444 -0.00069098471001207643 0.00069295071756902494 -0.00051413379548748497 -0.00057099218082804219 0.00070544770103659889 -0.00065547703762225233 -0.00068389840830012164 0.00085050505348247972 -0.00066975236991558202 -0.00083811322958762162 0.00072462319586878048 -0.00055823301662665447 -0.00077036771222833717 0.00080264378444995098 -0.0007056492665081114 -0.00076016084337325878 0.00080782081879634713 -0.00065668686476574444 -0.00069098471001207643 0.00072462319586878048 -0.00055823301662665447 -0.00077036771222833717 0.00080264378444995098 -0.0007056492665081114 -0.00076016084337325878 0.00080782081879634713 -0.00065668686476574444 -0.00069098471001207643 0.00070544770103659889 -0.00065547703762225233 -0.00068389840830012164 0.00080264378444995098 -0.0007056492665081114 -0.00076016084337325878 0.00080782081879634713 -0.00065668686476574444 -0.00069098471001207643 0.00081492198879386387 -0.00082239195418802862 -0.00069619609234604688 0.00070544770103659889 -0.00065547703762225233 -0.00068389840830012164 0.00080264378444995098 -0.0007056492665081114 -0.00076016084337325878 0.00091772098306803617 -0.00082239195418803014 -0.00081222877440416928 0.00080782081879634713 -0.00065668686476574444 -0.00069098471001207643 0.00081492198879386387 -0.00082239195418802862 -0.00069619609234604688 0.00085050505348247972 -0.00066975236991558202 -0.00083811322958762162 0.00080264378444995098 -0.0007056492665081114 -0.00076016084337325878 0.00091772098306803617 -0.00082239195418803014 -0.00081222877440416928 0.00080782081879634713 -0.00065668686476574444 -0.00069098471001207643 0.00091427045931545179 -0.00067702042050918983 -0.0008118823995263097 0.00091772098306803617 -0.00082239195418803014 -0.00081222877440416928 0.00080782081879634713 -0.00065668686476574444 -0.00069098471001207643 0.00094065328035700948 -0.0007425252572029735 -0.00074796500271308915 0.00091427045931545179 -0.00067702042050918983 -0.0008118823995263097 0.00085050505348247972 -0.00066975236991558202 -0.00083811322958762162 0.00091772098306803617 -0.00082239195418803014 -0.00081222877440416928 0.00080782081879634713 -0.00065668686476574444 -0.00069098471001207643 0.00091427045931545179 -0.00067702042050918983 -0.0008118823995263097 0.00085050505348247972 -0.00066975236991558202 -0.00083811322958762162 0.00080782081879634713 -0.00065668686476574444 -0.00069098471001207643 0.00082897229536079797 -0.00054440554594213609 -0.0007070097292846962 0.00091772098306803617 -0.00082239195418803014 -0.00081222877440416928 0.0008715915736910478 -0.00076130788113457971 -0.00069121331110092159 0.00080782081879634713 -0.00065668686476574444 -0.00069098471001207643 0.00094065328035700948 -0.0007425252572029735 -0.00074796500271308915 0.0008715915736910478 -0.00076130788113457971 -0.00069121331110092159 0.00080782081879634713 -0.00065668686476574444 -0.00069098471001207643 0.00080402738333724532 -0.00073505604850437921 -0.00058532001084326223 0.00081492198879386387 -0.00082239195418802862 -0.00069619609234604688 0.00091772098306803617 -0.00082239195418803014 -0.00081222877440416928 0.0008715915736910478 -0.00076130788113457971 -0.00069121331110092159 0.00080782081879634713 -0.00065668686476574444 -0.00069098471001207643 0.00081492198879386387 -0.00082239195418802862 -0.00069619609234604688 0.00080782081879634713 -0.00065668686476574444 -0.00069098471001207643 0.00079533547551193906 -0.00054294961773529568 -0.00056469459847833397 0.00069295071756902494 -0.00051413379548748497 -0.00057099218082804219 0.00080402738333724532 -0.00073505604850437921 -0.00058532001084326223 0.00080782081879634713 -0.00065668686476574444 -0.00069098471001207643 0.00088063423289908287 -0.00068417419158949065 -0.00061435667519805094 0.00079533547551193906 -0.00054294961773529568 -0.00056469459847833397 0.00082897229536079797 -0.00054440554594213609 -0.0007070097292846962 0.00080782081879634713 -0.00065668686476574444 -0.00069098471001207643 0.00088063423289908287 -0.00068417419158949065 -0.00061435667519805094 0.00079533547551193906 -0.00054294961773529568 -0.00056469459847833397 0.00080402738333724532 -0.00073505604850437921 -0.00058532001084326223 0.0008715915736910478 -0.00076130788113457971 -0.00069121331110092159 0.00080782081879634713 -0.00065668686476574444 -0.00069098471001207643 0.00094065328035700948 -0.0007425252572029735 -0.00074796500271308915 0.00088063423289908287 -0.00068417419158949065 -0.00061435667519805094 0.0008715915736910478 -0.00076130788113457971 -0.00069121331110092159 0.00080782081879634713 -0.00065668686476574444 -0.00069098471001207643 0.00088063423289908287 -0.00068417419158949065 -0.00061435667519805094 0.00080402738333724532 -0.00073505604850437921 -0.00058532001084326223 0.00091427045931545179 -0.00067702042050918983 -0.0008118823995263097 0.00080782081879634713 -0.00065668686476574444 -0.00069098471001207643 0.00094065328035700948 -0.0007425252572029735 -0.00074796500271308915 0.00082897229536079797 -0.00054440554594213609 -0.0007070097292846962 0.00080782081879634713 -0.00065668686476574444 -0.00069098471001207643 0.00094065328035700948 -0.0007425252572029735 -0.00074796500271308915 0.00088063423289908287 -0.00068417419158949065 -0.00061435667519805094 0.00082897229536079797 -0.00054440554594213609 -0.0007070097292846962 0.00094065328035700948 -0.0007425252572029735 -0.00074796500271308915 0.00088063423289908287 -0.00068417419158949065 -0.00061435667519805094 0.00082897229536079797 -0.00054440554594213609 -0.0007070097292846962 0.00096022481416241975 -0.00067346137539292983 -0.00069210132504891702 0.00088063423289908287 -0.00068417419158949065 -0.00061435667519805094 0.00087610903479844236 -0.00050838136116550432 -0.00064766657583838617 0.00096022481416241975 -0.00067346137539292983 -0.00069210132504891702 0.0009387966028715992 -0.00060422050261667607 -0.00058976008058110639 0.00088063423289908287 -0.00068417419158949065 -0.00061435667519805094 0.00079533547551193906 -0.00054294961773529568 -0.00056469459847833397 0.00082897229536079797 -0.00054440554594213609 -0.0007070097292846962 0.00087610903479844236 -0.00050838136116550432 -0.00064766657583838617 0.00088063423289908287 -0.00068417419158949065 -0.00061435667519805094 0.00082897229536079797 -0.00054440554594213609 -0.0007070097292846962 0.00087610903479844236 -0.00050838136116550432 -0.00064766657583838617 0.00096022481416241975 -0.00067346137539292983 -0.00069210132504891702 0.00088063423289908287 -0.00068417419158949065 -0.00061435667519805094 0.00079533547551193906 -0.00054294961773529568 -0.00056469459847833397 0.00087610903479844236 -0.00050838136116550432 -0.00064766657583838617 0.0009387966028715992 -0.00060422050261667607 -0.00058976008058110639 0.00088063423289908287 -0.00068417419158949065 -0.00061435667519805094 0.00079533547551193906 -0.00054294961773529568 -0.00056469459847833397 0.00084506028704700792 -0.00059015699916121448 -0.00046808279915669029 0.00078472878440062274 -0.00064805207104519662 -0.00046533271781587873 0.00070629581804570703 -0.00036615690557784093 -0.00057252335968034564 0.00082897229536079797 -0.00054440554594213609 -0.0007070097292846962 0.00062055484841488191 -0.00037038012237498608 -0.00063310561163113649 0.00069295071756902494 -0.00051413379548748497 -0.00057099218082804219 0.00072462319586878048 -0.00055823301662665447 -0.00077036771222833717 0.00082897229536079797 -0.00054440554594213609 -0.0007070097292846962 0.00062055484841488191 -0.00037038012237498608 -0.00063310561163113649 0.00069295071756902494 -0.00051413379548748497 -0.00057099218082804219 0.00079533547551193906 -0.00054294961773529568 -0.00056469459847833397 0.00070629581804570703 -0.00036615690557784093 -0.00057252335968034564 0.00082897229536079797 -0.00054440554594213609 -0.0007070097292846962 0.00069295071756902494 -0.00051413379548748497 -0.00057099218082804219 0.00079533547551193906 -0.00054294961773529568 -0.00056469459847833397 0.00070629581804570703 -0.00036615690557784093 -0.00057252335968034564 0.00072807769088612027 -0.00043962356878215705 -0.00045019063732989068 0.00069295071756902494 -0.00051413379548748497 -0.00057099218082804219 0.00080782081879634713 -0.00065668686476574444 -0.00069098471001207643 0.00079533547551193906 -0.00054294961773529568 -0.00056469459847833397 0.00082897229536079797 -0.00054440554594213609 -0.0007070097292846962 0.00069295071756902494 -0.00051413379548748497 -0.00057099218082804219 0.00070629581804570703 -0.00036615690557784093 -0.00057252335968034564 0.00082897229536079797 -0.00054440554594213609 -0.0007070097292846962 0.00074563258822869219 -0.00040444724096456286 -0.00076466422275250196 0.00077417449128146872 -0.00033638617032764417 -0.00066202984699856239 0.00070629581804570703 -0.00036615690557784093 -0.00057252335968034564 0.00082897229536079797 -0.00054440554594213609 -0.0007070097292846962 0.00074563258822869219 -0.00040444724096456286 -0.00076466422275250196 0.00062055484841488191 -0.00037038012237498608 -0.00063310561163113649 0.00070629581804570703 -0.00036615690557784093 -0.00057252335968034564 0.00082897229536079797 -0.00054440554594213609 -0.0007070097292846962 0.00077417449128146872 -0.00033638617032764417 -0.00066202984699856239 0.00087610903479844236 -0.00050838136116550432 -0.00064766657583838617 0.00079533547551193906 -0.00054294961773529568 -0.00056469459847833397 0.00070629581804570703 -0.00036615690557784093 -0.00057252335968034564 0.00082897229536079797 -0.00054440554594213609 -0.0007070097292846962 0.00087610903479844236 -0.00050838136116550432 -0.00064766657583838617 0.00082897229536079797 -0.00054440554594213609 -0.0007070097292846962 0.00077417449128146872 -0.00033638617032764417 -0.00066202984699856239 0.000862626233108154 -0.00041682744152375569 -0.00077225041943212048 0.00087610903479844236 -0.00050838136116550432 -0.00064766657583838617 0.000862626233108154 -0.00041682744152375569 -0.00077225041943212048 0.00095246279888163245 -0.0005582265029263504 -0.00076015850350948891 0.00087610903479844236 -0.00050838136116550432 -0.00064766657583838617 0.00092827605614801355 -0.0004480324746221723 -0.00068200400177531519 0.00077417449128146872 -0.00033638617032764417 -0.00066202984699856239 0.000862626233108154 -0.00041682744152375569 -0.00077225041943212048 0.00087610903479844236 -0.00050838136116550432 -0.00064766657583838617 0.00092827605614801355 -0.0004480324746221723 -0.00068200400177531519 0.00082897229536079797 -0.00054440554594213609 -0.0007070097292846962 0.000862626233108154 -0.00041682744152375569 -0.00077225041943212048 0.00095246279888163245 -0.0005582265029263504 -0.00076015850350948891 0.00087610903479844236 -0.00050838136116550432 -0.00064766657583838617 0.00091427045931545179 -0.00067702042050918983 -0.0008118823995263097 0.00083574153150696613 -0.00054165719787091244 -0.00081594422408051996 0.00082897229536079797 -0.00054440554594213609 -0.0007070097292846962 0.00093037175046758666 -0.00058988567293030399 -0.00083811322958766922 0.00083574153150696613 -0.00054165719787091244 -0.00081594422408051996 0.00082897229536079797 -0.00054440554594213609 -0.0007070097292846962 0.000862626233108154 -0.00041682744152375569 -0.00077225041943212048 0.00093037175046758666 -0.00058988567293030399 -0.00083811322958766922 0.00082897229536079797 -0.00054440554594213609 -0.0007070097292846962 0.000862626233108154 -0.00041682744152375569 -0.00077225041943212048 0.00093037175046758666 -0.00058988567293030399 -0.00083811322958766922 0.00095246279888163245 -0.0005582265029263504 -0.00076015850350948891 0.00083574153150696613 -0.00054165719787091244 -0.00081594422408051996 0.00082897229536079797 -0.00054440554594213609 -0.0007070097292846962 0.00074563258822869219 -0.00040444724096456286 -0.00076466422275250196 0.000862626233108154 -0.00041682744152375569 -0.00077225041943212048 0.00085116136406556092 -0.00047596695750378609 -0.00086091460131938811 0.00083574153150696613 -0.00054165719787091244 -0.00081594422408051996 0.00074563258822869219 -0.00040444724096456286 -0.00076466422275250196 0.000862626233108154 -0.00041682744152375569 -0.00077225041943212048 0.00085116136406556092 -0.00047596695750378609 -0.00086091460131938811 0.00074563258822869219 -0.00040444724096456286 -0.00076466422275250196 0.000862626233108154 -0.00041682744152375569 -0.00077225041943212048 0.0007698669282398716 -0.00031773971851461482 -0.00083768644465257347 0.00082897229536079797 -0.00054440554594213609 -0.0007070097292846962 0.00074563258822869219 -0.00040444724096456286 -0.00076466422275250196 0.00077417449128146872 -0.00033638617032764417 -0.00066202984699856239 0.000862626233108154 -0.00041682744152375569 -0.00077225041943212048 0.00074563258822869219 -0.00040444724096456286 -0.00076466422275250196 0.