<?xml version="1.0"?>
<VTKFile type="UnstructuredGrid" version="0.1" byte_order="LittleEndian">
<UnstructuredGrid>
<Piece NumberOfPoints="23284" NumberOfCells="5821">
<Points>
<DataArray type="Float64" NumberOfComponents="3" format="ascii">
0.0038256098144006869 0.0041400759042262009 0.0039854622984236152 0.0050000000000000001 0.0050000000000000001 0 0.007850875913509971 0.005381679503114206 0.0037846524567980611 0.01459658547112015 0.02963818693411439 0.01348159639352434 0 0 0.0050000000000000001 0 0.0050000000000000001 0.0050000000000000001 0.0025000000000000001 0.0025000000000000001 0.067187500000176273 0 0 0.12937500000035251 0.0025000000000000001 0.0025000000000000001 0.035993247487525602 0.01335482532982827 0.061921935510367468 0.031596396334779613 0.053495808280144469 0.082973914578683722 0.047312437411078337 0 0.0736402080526046 0.073773792303481078 0.056489871231288402 0.0025000000000000001 0.0025000000000000001 0.045799116620837459 0.028040759187074001 0.036821396352863953 0.0025000000000000001 0.0025000000000000001 0.035993247487525602 0.0025000000000000001 0.0025000000000000001 0.067187500000176273 0 0.0050000000000000001 0.0050000000000000001 0.0095042730786282278 0.0082759167994670979 0.0082480707199308924 0.0045817963841059857 0.0043364158334714669 0.009473343555270677 0.01335482532982827 0.061921935510367468 0.031596396334779613 0.045799116620837459 0.028040759187074001 0.036821396352863953 0.0025000000000000001 0.0025000000000000001 0.035993247487525602 0.053495808280144469 0.082973914578683722 0.047312437411078337 0.0025000000000000001 0.0025000000000000001 0.067187500000176273 0.056489871231288402 0.0025000000000000001 0.0025000000000000001 0.045799116620837459 0.028040759187074001 0.036821396352863953 0.073626545880309466 0 0.073777028331958816 0.0025000000000000001 0.0025000000000000001 0.067187500000176273 0.045799116620837459 0.028040759187074001 0.036821396352863953 0.053495808280144469 0.082973914578683722 0.047312437411078337 0.073626545880309466 0 0.073777028331958816 0.0025000000000000001 0.0025000000000000001 0.067187500000176273 0.056489871231288402 0.0025000000000000001 0.0025000000000000001 0.045799116620837459 0.028040759187074001 0.036821396352863953 0.073580292400886219 0.073580292401008413 0 0.073626545880309466 0 0.073777028331958816 0.045799116620837459 0.028040759187074001 0.036821396352863953 0.053495808280144469 0.082973914578683722 0.047312437411078337 0.073580292400886219 0.073580292401008413 0 0.073626545880309466 0 0.073777028331958816 0 0 0 0 0.0025000000000000001 0.0025000000000000001 0.0025000000000000001 0.0025000000000000001 0 0.0025000000000000001 0 0.0025000000000000001 0 0 0.0050000000000000001 0 0.0050000000000000001 0.0050000000000000001 0.0025000000000000001 0.0025000000000000001 0.035993247487525602 0.0025000000000000001 0.0025000000000000001 0.067187500000176273 0.010477667344183201 0.01284643002126089 0.00012275481760709659 0.007850875913509971 0.005381679503114206 0.0037846524567980611 0.0095042730786282278 0.0082759167994670979 0.0082480707199308924 0.01459658547112015 0.02963818693411439 0.01348159639352434 0.0050000000000000001 0.0050000000000000001 0 0.010477667344183201 0.01284643002126089 0.00012275481760709659 0.007850875913509971 0.005381679503114206 0.0037846524567980611 0.01459658547112015 0.02963818693411439 0.01348159639352434 0.0038256098144006869 0.0041400759042262009 0.0039854622984236152 0.007850875913509971 0.005381679503114206 0.0037846524567980611 0.0095042730786282278 0.0082759167994670979 0.0082480707199308924 0.01459658547112015 0.02963818693411439 0.01348159639352434 0 0 0 0 0.0025000000000000001 0.0025000000000000001 0.0025000000000000001 0.0025000000000000001 0 0 0.0050000000000000001 0 0.010477667344183201 0.01284643002126089 0.00012275481760709659 0.0095042730786282278 0.0082759167994670979 0.0082480707199308924 0.01459658547112015 0.02963818693411439 0.01348159639352434 0.034373062133854368 0.040091712813656893 0.017906843810535381 0.0050000000000000001 0 0.0050000000000000001 0 0 0.0050000000000000001 0.0025000000000000001 0.0025000000000000001 0.067187500000176273 0 0 0.12937500000035251 0.0095042730786282278 0.0082759167994670979 0.0082480707199308924 0.0025000000000000001 0.0025000000000000001 0.02029496691504501 0.045799116620837459 0.028040759187074001 0.036821396352863953 0.034373062133854368 0.040091712813656893 0.017906843810535381 0.0050000000000000001 0 0.0050000000000000001 0.0045817963841059857 0.0043364158334714669 0.009473343555270677 0.0025000000000000001 0.0025000000000000001 0.02029496691504501 0.056489871231288402 0.0025000000000000001 0.0025000000000000001 0.0050000000000000001 0 0.0050000000000000001 0.0045817963841059857 0.0043364158334714669 0.009473343555270677 0.028851790063782669 0.0025000000000000001 0.0025000000000000001 0.056489871231288402 0.0025000000000000001 0.0025000000000000001 0.0095042730786282278 0.0082759167994670979 0.0082480707199308924 0.0045817963841059857 0.0043364158334714669 0.009473343555270677 0.0025000000000000001 0.0025000000000000001 0.02029496691504501 0.056489871231288402 0.0025000000000000001 0.0025000000000000001 0.0095042730786282278 0.0082759167994670979 0.0082480707199308924 0.0045817963841059857 0.0043364158334714669 0.009473343555270677 0.028851790063782669 0.0025000000000000001 0.0025000000000000001 0.056489871231288402 0.0025000000000000001 0.0025000000000000001 0.0095042730786282278 0.0082759167994670979 0.0082480707199308924 0.0025000000000000001 0.0025000000000000001 0.02029496691504501 0.056489871231288402 0.0025000000000000001 0.0025000000000000001 0.045799116620837459 0.028040759187074001 0.036821396352863953 0 0.0050000000000000001 0.0050000000000000001 0 0.0050000000000000001 0 0.016153278899017791 0.044583689206717327 0.01563807923371947 0.0025000000000000001 0.056489871231288402 0.0025000000000000001 0.056489871231288402 0.0025000000000000001 0.0025000000000000001 0.045799116620837459 0.028040759187074001 0.036821396352863953 0.034373062133854368 0.040091712813656893 0.017906843810535381 0.073580292400886219 0.073580292401008413 0 0.028851790063782669 0.0025000000000000001 0.0025000000000000001 0.056489871231288402 0.0025000000000000001 0.0025000000000000001 0.034373062133854368 0.040091712813656893 0.017906843810535381 0.073580292400886219 0.073580292401008413 0 0.0050000000000000001 0 0 0.0050000000000000001 0 0.0050000000000000001 0.056489871231288402 0.0025000000000000001 0.0025000000000000001 0.128749999999761 0 0 0.0095042730786282278 0.0082759167994670979 0.0082480707199308924 0.0045817963841059857 0.0043364158334714669 0.009473343555270677 0.0025000000000000001 0.0025000000000000001 0.02029496691504501 0.01335482532982827 0.061921935510367468 0.031596396334779613 0 0.0050000000000000001 0.0050000000000000001 0.0025000000000000001 0.0025000000000000001 0.02029496691504501 0.0025000000000000001 0.0025000000000000001 0.035993247487525602 0.01335482532982827 0.061921935510367468 0.031596396334779613 0 0.0050000000000000001 0.0050000000000000001 0.0038256098144006869 0.0041400759042262009 0.0039854622984236152 0 0.0050000000000000001 0 0.01459658547112015 0.02963818693411439 0.01348159639352434 0.0050000000000000001 0 0 0.0050000000000000001 0.0050000000000000001 0 0.013289992014046129 0.0065291354129584592 0.0037710740372293499 0.007850875913509971 0.005381679503114206 0.0037846524567980611 0.0050000000000000001 0 0 0.0050000000000000001 0.0050000000000000001 0 0.056489871231288402 0.0025000000000000001 0.0025000000000000001 0.128749999999761 0 0 0.0025000000000000001 0.0025000000000000001 0.035993247487525602 0.053495808280144469 0.082973914578683722 0.047312437411078337 0 0.0736402080526046 0.073773792303481078 0.0025000000000000001 0.0025000000000000001 0.067187500000176273 0.0050000000000000001 0 0 0.0050000000000000001 0.0050000000000000001 0 0.013289992014046129 0.0065291354129584592 0.0037710740372293499 0.028851790063782669 0.0025000000000000001 0.0025000000000000001 0.0050000000000000001 0.0050000000000000001 0 0.010477667344183201 0.01284643002126089 0.00012275481760709659 0.013289992014046129 0.0065291354129584592 0.0037710740372293499 0.028851790063782669 0.0025000000000000001 0.0025000000000000001 0.0050000000000000001 0 0 0.0050000000000000001 0.0050000000000000001 0 0.028851790063782669 0.0025000000000000001 0.0025000000000000001 0.056489871231288402 0.0025000000000000001 0.0025000000000000001 0.0050000000000000001 0.0050000000000000001 0 0 0.0050000000000000001 0 0.0025000000000000001 0.056489871231288402 0.0025000000000000001 0 0.12875000000032791 0 0.0050000000000000001 0.0050000000000000001 0 0.010477667344183201 0.01284643002126089 0.00012275481760709659 0.0025000000000000001 0.056489871231288402 0.0025000000000000001 0 0.12875000000032791 0 0.0050000000000000001 0.0050000000000000001 0 0 0.0050000000000000001 0 0.01459658547112015 0.02963818693411439 0.01348159639352434 0.016153278899017791 0.044583689206717327 0.01563807923371947 0.0050000000000000001 0.0050000000000000001 0 0.010477667344183201 0.01284643002126089 0.00012275481760709659 0.01459658547112015 0.02963818693411439 0.01348159639352434 0.016153278899017791 0.044583689206717327 0.01563807923371947 0.0050000000000000001 0.0050000000000000001 0 0 0.0050000000000000001 0 0.016153278899017791 0.044583689206717327 0.01563807923371947 0.0025000000000000001 0.056489871231288402 0.0025000000000000001 0.0050000000000000001 0.0050000000000000001 0 0.010477667344183201 0.01284643002126089 0.00012275481760709659 0.016153278899017791 0.044583689206717327 0.01563807923371947 0.0025000000000000001 0.056489871231288402 0.0025000000000000001 0.0050000000000000001 0 0.0050000000000000001 0.056489871231288402 0.0025000000000000001 0.0025000000000000001 0.073626545880309466 0 0.073777028331958816 0.0025000000000000001 0.0025000000000000001 0.067187500000176273 0.0025000000000000001 0.0025000000000000001 0.02029496691504501 0.045799116620837459 0.028040759187074001 0.036821396352863953 0
[...]
<PointData Scalars="" Vectors="displacement," Tensors="">
<DataArray type="Float64" Name="displacement" NumberOfComponents="3" format="ascii">
15678708.959425414 28890682.686850775 5095857.9549927833 15681208.054473668 28962444.178812951 5112077.9173251661 15676926.440650348 28900615.118186481 5121538.6863448741 15628881.503662998 28741308.675037768 5553459.3866701284 15684317.810984608 28866798.242112722 5019542.0938006882 15676354.57738054 28866798.30761636 5107224.3620609352 15619970.445668772 27780231.962870315 5065809.5277680447 15563586.265280128 26685702.602266427 5019541.1700139195 15650250.873738289 28327268.331096109 5065809.7531521246 15559880.551522823 28421661.712159727 6118395.7698552972 15511096.424706537 28209988.693905227 6526537.9348798348 15500275.453945724 27660750.437000379 6310928.680472238 15682763.198519448 29000607.950379424 5118218.6647283714 15608769.599005383 28381706.044197984 5555734.7404765859 15650250.873738289 28327268.331096109 5065809.7531521246 15619970.445668772 27780231.962870315 5065809.5277680447 15676354.57738054 28866798.30761636 5107224.3620609352 15667984.304631315 28824975.804146159 5173898.1645740997 15673069.138743408 28795648.977674492 5100035.0626545893 15559880.551522823 28421661.712159727 6118395.7698552972 15608769.599005383 28381706.044197984 5555734.7404765859 15650250.873738289 28327268.331096109 5065809.7531521246 15511096.424706537 28209988.693905227 6526537.9348798348 15619970.445668772 27780231.962870315 5065809.5277680447 15682763.198519448 29000607.950379424 5118218.6647283714 15608769.599005383 28381706.044197984 5555734.7404765859 15617555.626781639 27777955.096440524 5091012.0873351283 15619970.445668772 27780231.962870315 5065809.5277680447 15608769.599005383 28381706.044197984 5555734.7404765859 15511096.424706537 28209988.693905227 6526537.9348798348 15617555.626781639 27777955.096440524 5091012.0873351283 15619970.445668772 27780231.962870315 5065809.5277680447 15682763.198519448 29000607.950379424 5118218.6647283714 15608769.599005383 28381706.044197984 5555734.7404765859 15571984.012411736 29071668.097484339 6381303.6343152113 15617555.626781639 27777955.096440524 5091012.0873351283 15608769.599005383 28381706.044197984 5555734.7404765859 15511096.424706537 28209988.693905227 6526537.9348798348 15571984.012411736 29071668.097484339 6381303.6343152113 15617555.626781639 27777955.096440524 5091012.0873351283 15689171.290640358 28954481.089200925 5019542.2104893867 15682762.977341764 28910639.746772688 5063383.4021622809 15685189.704095978 28958462.687626965 5065810.0229665404 15686744.517281922 28914621.247208953 5021968.9642763436 15684317.810984608 28866798.242112722 5019542.0938006882 15676354.57738054 28866798.30761636 5107224.3620609352 15650250.873738289 28327268.331096109 5065809.7531521246 15619970.445668772 27780231.962870315 5065809.5277680447 15668592.312431 28969015.471344426 5254993.578639931 15676926.440650348 28900615.118186481 5121538.6863448741 15667984.304631315 28824975.804146159 5173898.1645740997 15628881.503662998 28741308.675037768 5553459.3866701284 15681208.054473668 28962444.178812951 5112077.9173251661 15668592.312431 28969015.471344426 5254993.578639931 15676926.440650348 28900615.118186481 5121538.6863448741 15628881.503662998 28741308.675037768 5553459.3866701284 15678708.959425414 28890682.686850775 5095857.9549927833 15676926.440650348 28900615.118186481 5121538.6863448741 15667984.304631315 28824975.804146159 5173898.1645740997 15628881.503662998 28741308.675037768 5553459.3866701284 15689171.290640358 28954481.089200925 5019542.2104893867 15682762.977341764 28910639.746772688 5063383.4021622809 15685189.704095978 28958462.687626965 5065810.0229665404 15681208.066680772 28954480.780032732 5107224.4009605041 15668592.312431 28969015.471344426 5254993.578639931 15667984.304631315 28824975.804146159 5173898.1645740997 15628881.503662998 28741308.675037768 5553459.3866701284 15607937.140640611 28695202.518942833 5755974.2507914556 15684317.890292484 28874761.406342816 5024395.5716545889 15684317.810984608 28866798.242112722 5019542.0938006882 15619970.445668772 27780231.962870315 5065809.5277680447 15563586.265280128 26685702.602266427 5019541.1700139195 15667984.304631315 28824975.804146159 5173898.1645740997 15665489.28477635 28602560.437876467 5065809.8788660122 15608769.599005383 28381706.044197984 5555734.7404765859 15607937.140640611 28695202.518942833 5755974.2507914556 15684317.890292484 28874761.406342816 5024395.5716545889 15673069.138743408 28795648.977674492 5100035.0626545893 15665489.28477635 28602560.437876467 5065809.8788660122 15682763.198519448 29000607.950379424 5118218.6647283714 15684317.890292484 28874761.406342816 5024395.5716545889 15673069.138743408 28795648.977674492 5100035.0626545893 15682763.047313627 28956590.377549324 5091390.0713585662 15682763.198519448 29000607.950379424 5118218.6647283714 15667984.304631315 28824975.804146159 5173898.1645740997 15673069.138743408 28795648.977674492 5100035.0626545893 15665489.28477635 28602560.437876467 5065809.8788660122 15682763.198519448 29000607.950379424 5118218.6647283714 15667984.304631315 28824975.804146159 5173898.1645740997 15673069.138743408 28795648.977674492 5100035.0626545893 15682763.047313627 28956590.377549324 5091390.0713585662 15682763.198519448 29000607.950379424 5118218.6647283714 15667984.304631315 28824975.804146159 5173898.1645740997 15665489.28477635 28602560.437876467 5065809.8788660122 15682763.198519448 29000607.950379424 5118218.6647283714 15608769.599005383 28381706.044197984 5555734.7404765859 15676354.57738054 28866798.30761636 5107224.3620609352 15681208.066680772 28954480.780032732 5107224.4009605041 15602985.286391497 28705970.945697561 5817061.3217367977 15596776.043035761 28914621.335677359 6012599.9283538992 15682763.198519448 29000607.950379424 5118218.6647283714 15608769.599005383 28381706.044197984 5555734.7404765859 15607937.140640611 28695202.518942833 5755974.2507914556 15571984.012411736 29071668.097484339 6381303.6343152113 15682763.047313627 28956590.377549324 5091390.0713585662 15682763.198519448 29000607.950379424 5118218.6647283714 15607937.140640611 28695202.518942833 5755974.2507914556 15571984.012411736 29071668.097484339 6381303.6343152113 15689171.318647964 28962444.174271304 5024395.590502942 15684317.890292484 28874761.406342816 5024395.5716545889 15682763.198519448 29000607.950379424 5118218.6647283714 15689171.874327634 29159534.079984151 5144521.3917715438 15667984.304631315 28824975.804146159 5173898.1645740997 15673069.138743408 28795648.977674492 5100035.0626545893 15665489.28477635 28602560.437876467 5065809.8788660122 15559880.551522823 28421661.712159727 6118395.7698552972 15676354.57738054 28866798.30761636 5107224.3620609352 15665489.28477635 28602560.437876467 5065809.8788660122 15650250.873738289 28327268.331096109 5065809.7531521246 15559880.551522823 28421661.712159727 6118395.7698552972 15676354.57738054 28866798.30761636 5107224.3620609352 15678708.959425414 28890682.686850775 5095857.9549927833 15681208.066680772 28954480.780032732 5107224.4009605041 15628881.503662998 28741308.675037768 5553459.3866701284 15689171.318647964 28962444.174271304 5024395.590502942 15681208.054473668 28962444.178812951 5112077.9173251661 15675112.150295263 28909515.836502448 5146940.7339046225 15676926.440650348 28900615.118186481 5121538.6863448741 15689171.318647964 28962444.174271304 5024395.590502942 15681208.054473668 28962444.178812951 5112077.9173251661 15682763.198519448 29000607.950379424 5118218.6647283714 15689171.874327634 29159534.079984151 5144521.3917715438 15650250.873738289 28327268.331096109 5065809.7531521246 15511096.424706537 28209988.693905227 6526537.9348798348 15500275.453945724 27660750.437000379 6310928.680472238 15619970.445668772 27780231.962870315 5065809.5277680447 15689171.318647964 28962444.174271304 5024395.590502942 15681208.054473668 28962444.178812951 5112077.9173251661 15675112.150295263 28909515.836502448 5146940.7339046225 15682763.047313627 28956590.377549324 5091390.0713585662 15681208.054473668 28962444.178812951 5112077.9173251661 15668592.312431 28969015.471344426 5254993.578639931 15675112.150295263 28909515.836502448 5146940.7339046225 15682763.047313627 28956590.377549324 5091390.0713585662 15689171.318647964 28962444.174271304 5024395.590502942 15681208.054473668 28962444.178812951 5112077.9173251661 15682763.047313627 28956590.377549324 5091390.0713585662 15682763.198519448 29000607.950379424 5118218.6647283714 15681208.054473668 28962444.178812951 5112077.9173251661 15681208.066680772 28954480.780032732 5107224.4009605041 15596776.043035761 28914621.335677359 6012599.9283538992 15484117.816525986 28954480.682297062 7277358.2344691725 15681208.054473668 28962444.178812951 5112077.9173251661 15668592.312431 28969015.471344426 5254993.578639931 15596776.043035761 28914621.335677359 6012599.9283538992 15484117.816525986 28954480.682297062 7277358.2344691725 15681208.054473668 28962444.178812951 5112077.9173251661 15681208.066680772 28954480.780032732 5107224.4009605041 15628881.503662998 28741308.675037768 5553459.3866701284 15602985.286391497 28705970.945697561 5817061.3217367977 15681208.054473668 28962444.178812951 5112077.9173251661 15668592.312431 28969015.471344426 5254993.578639931 15628881.503662998 28741308.675037768 5553459.3866701284 15602985.286391497 28705970.945697561 5817061.3217367977 15681208.054473668 28962444.178812951 5112077.9173251661 15681208.066680772 28954480.780032732 5107224.4009605041 15602985.286391497 28705970.945697561 5817061.3217367977 15596776.043035761 28914621.335677359 6012599.9283538992 15681208.054473668 28962444.178812951 5112077.9173251661 15668592.312431 28969015.471344426 5254993.578639931 15602985.286391497 28705970.945697561 5817061.3217367977 15596776.043035761 28914621.335677359 6012599.9283538992 15684317.890292484 28874761.406342816 5024395.5716545889 15682763.198519448 29000607.950379424 5118218.6647283714 15617555.626781639 27777955.096440524 5091012.0873351283 15619970.445668772 27780231.962870315 5065809.5277680447 15665489.28477635 28602560.437876467 5065809.8788660122 15608769.599005383 28381706.044197984 5555734.7404765859 15650250.873738289 28327268.331096109 5065809.7531521246 15607937.140640611 28695202.518942833 5755974.2507914556 15684317.890292484 28874761.406342816 5024395.5716545889 15682763.198519448 29000607.950379424 5118218.6647283714 15650250.873738289 28327268.331096109 5065809.7531521246 15619970.445668772 27780231.962870315 5065809.5277680447 15676354.57738054 28866798.30761636 5107224.3620609352 15667984.304631315 28824975.804146159 5173898.1645740997 15628881.503662998 28741308.675037768 5553459.3866701284 15559880.551522823 28421661.712159727 6118395.7698552972 15676354.57738054 28866798.30761636 5107224.3620609352 15650250.873738289 28327268.331096109 5065809.7531521246 15500275.453945724 27660750.437000379 6310928.680472238 15619970.445668772 27780231.962870315 5065809.5277680447 15676354.57738054 28866798.30761636 5107224.3620609352 15650250.873738289 28327268.331096109 5065809.7531521246 15559880.551522823 28421661.712159727 6118395.7698552972 15500275.453945724 27660750.437000379 6310928.680472238 15676354.57738054 28866798.30761636 5107224.3620609352 15673069.138743408 28795648.977674492 5100035.0626545893 15665489.28477635 28602560.437876467 5065809.8788660122 15559880.551522823 28421661.712159727 6118395.7698552972 15678708.959425414 28890682.686850775 5095857.9549927833 15681208.054473668 28962444.178812951 5112077.9173251661 15681208.066680772 28954480.780032732 5107224.4009605041 15628881.503662998 28741308.675037768 5553459.3866701284 15675112.150295263 28909515.836502448 5146940.7339046225 15667984.304631315 28824975.804146159 5173898.1645740997 15682763.047313627 28956590.377549324 5091390.0713585662 15607937.140640611 28695202.518942833 5755974.2507914556 15608769.599005383 28381706.044197984 5555734.7404765859 15650250.873738289 28327268.331096109 5065809.7531521246 15607937.140640611 28695202.518942833 5755974.2507914556 15511096.424706537 28209988.693905227 6526537.9348798348 15689171.290640358 28954481.089200925 5019542.2104893867 15685189.704095978 28958462.687626965 5065810.0229665404 15686744.517281922 28914621.247208953 5021968.9642763436 15689171.318647964 28962444.174271304 5024395.590502942 15650250.873738289 28327268.331096109 5065809.7531521246 15559880.551522823 28421661.712159727 6118395.7698552972 15607937.140640611 28695202.518942833 5755974.2507914556 15511096.424706537 28209988.693905227 6526537.9348798348 15689171.290640358 28954481.089200925 5019542.2104893867 15682762.977341764 28910639.746772688 5063383.4021622809 15686744.517281922 28914621.247208953 5021968.9642763436 15684317.810984608 28866798.242112722 5019542.0938006882 15681208.054473668 28962444.178812951 5112077.9173251661 15668592.312431 28969015.471344426 5254993.578639931 15682763.047313627 28956590.377549324 5091390.0713585662 15571984.012411736 29071668.097484339 6381303.6343152113 15681208.054473668 28962444.178812951 5112077.9173251661 15682763.047313627 28956590.377549324 5091390.0713585662 15682763.198519448 29000607.950379424 5118218.6647283714 15571984.012411736 29071668.097484339 6381303.6343152113 15665489.28477635 28602560.437876467 5065809.8788660122 15650250.873738289 28327268.331096109 5065809.7531521246 15559880.551522823 28421661.712159727 6118395.7698552972 15607937.140640611 28695202.518942833 5755974.2507914556 15689171.318647964 28962444.174271304 5024395.590502942 15684317.890292484 28874761.406342816 5024395.5716545889 15675112.150295263 28909515.836502448 5146940.7339046225 15676926.440650348 28900615.118186481 5121538.6863448741 15668592.312431 28969015.471344426 5254993.578639931 15682763.047313627 28956590.377549324 5091390.0713585662 15596776.043035761 28914621.335677359 6012599.9283538992 15571984.012411736 29071668.097484339 6381303.6343152113 15682763.047313627 28956590.377549324 5091390.0713585662 15607937.140640611 28695202.518942833 5755974.2507914556 15596776.043035761 28914621.335677359 6012599.9283538992 15571984.012411736 29071668.097484339 6381303.6343152113 15689171.318647964 28962444.174271304 5024395.590502942 15684317.890292484 28874761.406342816 5024395.5716545889 15675112.150295263 28909515.836502448 5146940.7339046225 15682763.047313627 28956590.377549324 5091390.0713585662 15682762.977341764 28910639.746772688 5063383.4021622809 15685189.704095978 28958462.687626965 5065810.0229665404 15678708.959425414 28890682.686850775 5095857.9549927833 15681208.066680772 28954480.780032732 5107224.4009605041 15685189.704095978 28958462.687626965 5065810.0229665404 15686744.517281922 28914621.247208953 5021968.9642763436 15689171.318647964 28962444.174271304 5024395.590502942 15678708.959425414 28890682.686850775 5095857.9549927833 15684317.890292484 28874761.406342816 5024395.5716545889 15675112.150295263 28909515.836502448 5146940.7339046225 15676926.440650348 28900615.118186481 5121538.6863448741 15673069.138743408 28795648.977674492 5100035.0626545893 15675112.150295263 28909515.836502448 5146940.7339046225 15667984.304631315 28824975.804146159 5173898.1645740997 15673069.138743408 28795648.977674492 5100035.0626545893 15682763.047313627 28956590.377549324 5091390.0713585662 15681208.054473668 28962444.178812951 5112077.9173251661 15668592.312431 28969015.471344426 5254993.578639931 15571984.012411736 29071668.097484339 6381303.6343152113 15484117.816525986 28954480.682297062 7277358.2344691725 15684317.890292484 28874761.406342816 5024395.5716545889 15675112.150295263 28909515.836502448 5146940.7339046225 15673069.138743408 28795648.977674492 5100035.0626545893 15682763.047313627 28956590.377549324 5091390.0713585662 15676354.57738054 28866798.30761636 5107224.3620609352 15681208.066680772 28954480.780032732 5107224.4009605041 15628881.503662998 28741308.675037768 5553459.3866701284 15602985.286391497 28705970.945697561 5817061.3217367977 15668592.312431 28969015.471344426 5254993.578639931 15675112.150295263 28909515.836502448 5146940.7339046225 15667984.304631315 28824975.804146159 5173898.1645740997 15607937.140640611 28695202.518942833 5755974.2507914556 15682762.977341764 28910639.746772688 5063383.4021622809 15686744.517281922 28914621.247208953 5021968.9642763436 15684317.810984608 28866798.242112722 5019542.0938006882 15678708.959425414 28890682.686850775 5095857.9549927833 15689171.318647964 28962444.174271304 5024395.590502942 15684317.890292484 28874761.406342816 5024395.5716545889 15682763.047313627 28956590.377549324 5091390.0713585662 15682763.198519448 29000607.950379424 5118218.6647283714 15684317.890292484 28874761.406342816 5024395.5716545889 15665489.28477635 28602560.437876467 5065809.8788660122 15682763.198519448 29000607.950379424 5118218.6647283714 15650250.873738289 28327268.331096109 5065809.7531521246 15676354.57738054 28866798.30761636 5107224.3620609352 15681208.066680772 28954480.780032732 5107224.4009605041 15596776.043035761 28914621.335677359 6012599.9283538992 15484117.816525986 28954480.682297062 7277358.2344691725 15667984.304631315 28824975.804146159 5173898.1645740997 15665489.28477635 28602560.437876467 5065809.8788660122 15559880.551522823 28421661.712159727 6118395.7698552972 15607937.140640611 28695202.518942833 5755974.2507914556 15665489.28477635 28602560.437876467 5065809.8788660122 15682763.198519448 29000607.950379424 5118218.6647283714 15608769.599005383 28381706.044197984 5555734.7404765859 15650250.873738289 28327268.331096109 5065809.7531521246 15668592.312431 28969015.471344426 5254993.578639931 15682763.047313627 28956590.377549324 5091390.0713585662 15607937.140640611 28695202.518942833 5755974.2507914556 15596776.043035761 28914621.335677359 6012599.9283538992 15676354.57738054 28866798.30761636 5107224.3620609352 15678708.959425414 28890682.686850775 5095857.9549927833 15667984.304631315 28824975.804146159 5173898.1645740997 15628881.503662998 28741308.675037768 5553459.3866701284 15668592.312431 28969015.471344426 5254993.578639931 15675112.150295263 28909515.836502448 5146940.7339046225 15682763.047313627 28956590.377549324 5091390.0713585662 15607937.140640611 28695202.518942833 5755974.2507914556 15676354.57738054 28866798.30761636 5107224.3620609352 15678708.959425414 28890682.686850775 5095857.9549927833 15667984.304631315 28824975.804146159 5173898.1645740997 15673069.138743408 28795648.977674492 5100035.0626545893 15684317.890292484 28874761.406342816 5024395.5716545889 15684317.810984608 28866798.242112722 5019542.0938006882 15650250.873738289 28327268.331096109 5065809.7531521246 15619970.445668772 27780231.962870315 5065809.5277680447 15682762.977341764 28910639.746772688 5063383.4021622809 15685189.704095978 28958462.687626965 5065810.0229665404 15686744.517281922 28914621.247208953 5021968.9642763436 15678708.959425414 28890682.686850775 5095857.9549927833 15689171.318647964 28962444.174271304 5024395.590502942 15678708.959425414 28890682.686850775 5095857.9549927833 15681208.054473668 28962444.178812951 5112077.9173251661 15676926.440650348 28900615.118186481 5121538.6863448741 15686744.517281922 28914621.247208953 5021968.9642763436 15689171.318647964 28962444.174271304 5024395.590502942 15684317.890292484 28874761.406342816 5024395.5716545889 15678708.959425414 28890682.686850775 5095857.9549927833 15689171.318647964 28962444.174271304 5024395.590502942 15684317.890292484 28874761.406342816 5024395.5716545889 15678708.959425414 28890682.686850775 5095857.9549927833 15676926.440650348 28900615.118186481 5121538.6863448741 15685189.704095978 28958462.687626965 5065810.0229665404 15689171.318647964 28962444.174271304 5024395.590502942 15678708.959425414 28890682.686850775 5095857.9549927833 15681208.054473668 28962444.178812951 5112077.9173251661 15684317.890292484 28874761.406342816 5024395.5716545889 15678708.959425414 28890682.686850775 5095857.9549927833 15676926.44065034