<?xml version="1.0"?>
<VTKFile type="UnstructuredGrid" version="0.1" byte_order="LittleEndian">
<UnstructuredGrid>
<Piece NumberOfPoints="23284" NumberOfCells="5821">
<Points>
<DataArray type="Float64" NumberOfComponents="3" format="ascii">
0.0038256098144006869 0.0041400759042262009 0.0039854622984236152 0.0050000000000000001 0.0050000000000000001 0 0.007850875913509971 0.005381679503114206 0.0037846524567980611 0.01459658547112015 0.02963818693411439 0.01348159639352434 0 0 0.0050000000000000001 0 0.0050000000000000001 0.0050000000000000001 0.0025000000000000001 0.0025000000000000001 0.067187500000176273 0 0 0.12937500000035251 0.0025000000000000001 0.0025000000000000001 0.035993247487525602 0.01335482532982827 0.061921935510367468 0.031596396334779613 0.053495808280144469 0.082973914578683722 0.047312437411078337 0 0.0736402080526046 0.073773792303481078 0.056489871231288402 0.0025000000000000001 0.0025000000000000001 0.045799116620837459 0.028040759187074001 0.036821396352863953 0.0025000000000000001 0.0025000000000000001 0.035993247487525602 0.0025000000000000001 0.0025000000000000001 0.067187500000176273 0 0.0050000000000000001 0.0050000000000000001 0.0095042730786282278 0.0082759167994670979 0.0082480707199308924 0.0045817963841059857 0.0043364158334714669 0.009473343555270677 0.01335482532982827 0.061921935510367468 0.031596396334779613 0.045799116620837459 0.028040759187074001 0.036821396352863953 0.0025000000000000001 0.0025000000000000001 0.035993247487525602 0.053495808280144469 0.082973914578683722 0.047312437411078337 0.0025000000000000001 0.0025000000000000001 0.067187500000176273 0.056489871231288402 0.0025000000000000001 0.0025000000000000001 0.045799116620837459 0.028040759187074001 0.036821396352863953 0.073626545880309466 0 0.073777028331958816 0.0025000000000000001 0.0025000000000000001 0.067187500000176273 0.045799116620837459 0.028040759187074001 0.036821396352863953 0.053495808280144469 0.082973914578683722 0.047312437411078337 0.073626545880309466 0 0.073777028331958816 0.0025000000000000001 0.0025000000000000001 0.067187500000176273 0.056489871231288402 0.0025000000000000001 0.0025000000000000001 0.045799116620837459 0.028040759187074001 0.036821396352863953 0.073580292400886219 0.073580292401008413 0 0.073626545880309466 0 0.073777028331958816 0.045799116620837459 0.028040759187074001 0.036821396352863953 0.053495808280144469 0.082973914578683722 0.047312437411078337 0.073580292400886219 0.073580292401008413 0 0.073626545880309466 0 0.073777028331958816 0 0 0 0 0.0025000000000000001 0.0025000000000000001 0.0025000000000000001 0.0025000000000000001 0 0.0025000000000000001 0 0.0025000000000000001 0 0 0.0050000000000000001 0 0.0050000000000000001 0.0050000000000000001 0.0025000000000000001 0.0025000000000000001 0.035993247487525602 0.0025000000000000001 0.0025000000000000001 0.067187500000176273 0.010477667344183201 0.01284643002126089 0.00012275481760709659 0.007850875913509971 0.005381679503114206 0.0037846524567980611 0.0095042730786282278 0.0082759167994670979 0.0082480707199308924 0.01459658547112015 0.02963818693411439 0.01348159639352434 0.0050000000000000001 0.0050000000000000001 0 0.010477667344183201 0.01284643002126089 0.00012275481760709659 0.007850875913509971 0.005381679503114206 0.0037846524567980611 0.01459658547112015 0.02963818693411439 0.01348159639352434 0.0038256098144006869 0.0041400759042262009 0.0039854622984236152 0.007850875913509971 0.005381679503114206 0.0037846524567980611 0.0095042730786282278 0.0082759167994670979 0.0082480707199308924 0.01459658547112015 0.02963818693411439 0.01348159639352434 0 0 0 0 0.0025000000000000001 0.0025000000000000001 0.0025000000000000001 0.0025000000000000001 0 0 0.0050000000000000001 0 0.010477667344183201 0.01284643002126089 0.00012275481760709659 0.0095042730786282278 0.0082759167994670979 0.0082480707199308924 0.01459658547112015 0.02963818693411439 0.01348159639352434 0.034373062133854368 0.040091712813656893 0.017906843810535381 0.0050000000000000001 0 0.0050000000000000001 0 0 0.0050000000000000001 0.0025000000000000001 0.0025000000000000001 0.067187500000176273 0 0 0.12937500000035251 0.0095042730786282278 0.0082759167994670979 0.0082480707199308924 0.0025000000000000001 0.0025000000000000001 0.02029496691504501 0.045799116620837459 0.028040759187074001 0.036821396352863953 0.034373062133854368 0.040091712813656893 0.017906843810535381 0.0050000000000000001 0 0.0050000000000000001 0.0045817963841059857 0.0043364158334714669 0.009473343555270677 0.0025000000000000001 0.0025000000000000001 0.02029496691504501 0.056489871231288402 0.0025000000000000001 0.0025000000000000001 0.0050000000000000001 0 0.0050000000000000001 0.0045817963841059857 0.0043364158334714669 0.009473343555270677 0.028851790063782669 0.0025000000000000001 0.0025000000000000001 0.056489871231288402 0.0025000000000000001 0.0025000000000000001 0.0095042730786282278 0.0082759167994670979 0.0082480707199308924 0.0045817963841059857 0.0043364158334714669 0.009473343555270677 0.0025000000000000001 0.0025000000000000001 0.02029496691504501 0.056489871231288402 0.0025000000000000001 0.0025000000000000001 0.0095042730786282278 0.0082759167994670979 0.0082480707199308924 0.0045817963841059857 0.0043364158334714669 0.009473343555270677 0.028851790063782669 0.0025000000000000001 0.0025000000000000001 0.056489871231288402 0.0025000000000000001 0.0025000000000000001 0.0095042730786282278 0.0082759167994670979 0.0082480707199308924 0.0025000000000000001 0.0025000000000000001 0.02029496691504501 0.056489871231288402 0.0025000000000000001 0.0025000000000000001 0.045799116620837459 0.028040759187074001 0.036821396352863953 0 0.0050000000000000001 0.0050000000000000001 0 0.0050000000000000001 0 0.016153278899017791 0.044583689206717327 0.01563807923371947 0.0025000000000000001 0.056489871231288402 0.0025000000000000001 0.056489871231288402 0.0025000000000000001 0.0025000000000000001 0.045799116620837459 0.028040759187074001 0.036821396352863953 0.034373062133854368 0.040091712813656893 0.017906843810535381 0.073580292400886219 0.073580292401008413 0 0.028851790063782669 0.0025000000000000001 0.0025000000000000001 0.056489871231288402 0.0025000000000000001 0.0025000000000000001 0.034373062133854368 0.040091712813656893 0.017906843810535381 0.073580292400886219 0.073580292401008413 0 0.0050000000000000001 0 0 0.0050000000000000001 0 0.0050000000000000001 0.056489871231288402 0.0025000000000000001 0.0025000000000000001 0.128749999999761 0 0 0.0095042730786282278 0.0082759167994670979 0.0082480707199308924 0.0045817963841059857 0.0043364158334714669 0.009473343555270677 0.0025000000000000001 0.0025000000000000001 0.02029496691504501 0.01335482532982827 0.061921935510367468 0.031596396334779613 0 0.0050000000000000001 0.0050000000000000001 0.0025000000000000001 0.0025000000000000001 0.02029496691504501 0.0025000000000000001 0.0025000000000000001 0.035993247487525602 0.01335482532982827 0.061921935510367468 0.031596396334779613 0 0.0050000000000000001 0.0050000000000000001 0.0038256098144006869 0.0041400759042262009 0.0039854622984236152 0 0.0050000000000000001 0 0.01459658547112015 0.02963818693411439 0.01348159639352434 0.0050000000000000001 0 0 0.0050000000000000001 0.0050000000000000001 0 0.013289992014046129 0.0065291354129584592 0.0037710740372293499 0.007850875913509971 0.005381679503114206 0.0037846524567980611 0.0050000000000000001 0 0 0.0050000000000000001 0.0050000000000000001 0 0.056489871231288402 0.0025000000000000001 0.0025000000000000001 0.128749999999761 0 0 0.0025000000000000001 0.0025000000000000001 0.035993247487525602 0.053495808280144469 0.082973914578683722 0.047312437411078337 0 0.0736402080526046 0.073773792303481078 0.0025000000000000001 0.0025000000000000001 0.067187500000176273 0.0050000000000000001 0 0 0.0050000000000000001 0.0050000000000000001 0 0.013289992014046129 0.0065291354129584592 0.0037710740372293499 0.028851790063782669 0.0025000000000000001 0.0025000000000000001 0.0050000000000000001 0.0050000000000000001 0 0.010477667344183201 0.01284643002126089 0.00012275481760709659 0.013289992014046129 0.0065291354129584592 0.0037710740372293499 0.028851790063782669 0.0025000000000000001 0.0025000000000000001 0.0050000000000000001 0 0 0.0050000000000000001 0.0050000000000000001 0 0.028851790063782669 0.0025000000000000001 0.0025000000000000001 0.056489871231288402 0.0025000000000000001 0.0025000000000000001 0.0050000000000000001 0.0050000000000000001 0 0 0.0050000000000000001 0 0.0025000000000000001 0.056489871231288402 0.0025000000000000001 0 0.12875000000032791 0 0.0050000000000000001 0.0050000000000000001 0 0.010477667344183201 0.01284643002126089 0.00012275481760709659 0.0025000000000000001 0.056489871231288402 0.0025000000000000001 0 0.12875000000032791 0 0.0050000000000000001 0.0050000000000000001 0 0 0.0050000000000000001 0 0.01459658547112015 0.02963818693411439 0.01348159639352434 0.016153278899017791 0.044583689206717327 0.01563807923371947 0.0050000000000000001 0.0050000000000000001 0 0.010477667344183201 0.01284643002126089 0.00012275481760709659 0.01459658547112015 0.02963818693411439 0.01348159639352434 0.016153278899017791 0.044583689206717327 0.01563807923371947 0.0050000000000000001 0.0050000000000000001 0 0 0.0050000000000000001 0 0.016153278899017791 0.044583689206717327 0.01563807923371947 0.0025000000000000001 0.056489871231288402 0.0025000000000000001 0.0050000000000000001 0.0050000000000000001 0 0.010477667344183201 0.01284643002126089 0.00012275481760709659 0.016153278899017791 0.044583689206717327 0.01563807923371947 0.0025000000000000001 0.056489871231288402 0.0025000000000000001 0.0050000000000000001 0 0.0050000000000000001 0.056489871231288402 0.0025000000000000001 0.0025000000000000001 0.073626545880309466 0 0.073777028331958816 0.0025000000000000001 0.0025000000000000001 0.067187500000176273 0.0025000000000000001 0.0025000000000000001 0.02029496691504501 0.045799116620837459 0.028040759187074001 0.036821396352863953 0
[...]
<PointData Scalars="" Vectors="displacement," Tensors="">
<DataArray type="Float64" Name="displacement" NumberOfComponents="3" format="ascii">
1480883.1773470645 3616197.6838122811 147553.24492890009 1481716.122754459 3626431.1156924157 150006.73111141112 1481062.0464584185 3616260.1698053246 151525.13096715894 1482045.7740008456 3590264.2458520913 215868.5420023443 1480223.1441183831 3613995.597692993 136078.18821135387 1480794.3957252223 3613995.5898221224 149084.98720078799 1469044.9485203838 3451938.0282400977 143042.47628808502 1457295.5005863488 3290451.7039782177 136078.25825519871 1474795.389981057 3533085.4384817025 143042.45552166816 1482394.8739364587 3543283.0361836045 299621.29066390864 1481902.9341873517 3497813.8043623739 361784.71633127332 1475958.6126332376 3435090.3239906817 327642.90083362866 1480969.5565408845 3614044.8903142861 152995.09057283544 1477560.7175814456 3525984.1229379382 217465.01123449067 1474795.389981057 3533085.4384817025 143042.45552166816 1469044.9485203838 3451938.0282400977 143042.47628808502 1480794.3957252223 3613995.5898221224 149084.98720078799 1480569.9061052168 3604460.3249422731 159358.87018343181 1479893.9503339366 3601835.3503159252 148203.38150441035 1482394.8739364587 3543283.0361836045 299621.29066390864 1477560.7175814456 3525984.1229379382 217465.01123449067 1474795.389981057 3533085.4384817025 143042.45552166816 1481902.9341873517 3497813.8043623739 361784.71633127332 1469044.9485203838 3451938.0282400977 143042.47628808502 1480969.5565408845 3614044.8903142861 152995.09057283544 1477560.7175814456 3525984.1229379382 217465.01123449067 1467544.5173834236 3426669.9348864406 149650.71576690767 1469044.9485203838 3451938.0282400977 143042.47628808502 1477560.7175814456 3525984.1229379382 217465.01123449067 1481902.9341873517 3497813.8043623739 361784.71633127332 1467544.5173834236 3426669.9348864406 149650.71576690767 1469044.9485203838 3451938.0282400977 143042.47628808502 1480969.5565408845 3614044.8903142861 152995.09057283544 1477560.7175814456 3525984.1229379382 217465.01123449067 1489551.3455988136 3618595.7303953515 341050.93238840176 1467544.5173834236 3426669.9348864406 149650.71576690767 1477560.7175814456 3525984.1229379382 217465.01123449067 1481902.9341873517 3497813.8043623739 361784.71633127332 1489551.3455988136 3618595.7303953515 341050.93238840176 1467544.5173834236 3426669.9348864406 149650.71576690767 1481144.8819205093 3627002.4246911039 136078.14877610008 1480969.6753859874 3620499.0157117308 142581.54968756088 1481430.5140210192 3626716.7809489863 143042.38374750761 1480684.00125999 3620213.3475842266 136539.04715027899 1480223.1441183831 3613995.597692993 136078.18821135387 1480794.3957252223 3613995.5898221224 149084.98720078799 1474795.389981057 3533085.4384817025 143042.45552166816 1469044.9485203838 3451938.0282400977 143042.47628808502 1482589.9413984786 3625485.9562957017 171427.87841567092 1481062.0464584185 3616260.1698053246 151525.13096715894 1480569.9061052168 3604460.3249422731 159358.87018343181 1482045.7740008456 3590264.2458520913 215868.5420023443 1481716.122754459 3626431.1156924157 150006.73111141112 1482589.9413984786 3625485.9562957017 171427.87841567092 1481062.0464584185 3616260.1698053246 151525.13096715894 1482045.7740008456 3590264.2458520913 215868.5420023443 1480883.1773470645 3616197.6838122811 147553.24492890009 1481062.0464584185 3616260.1698053246 151525.13096715894 1480569.9061052168 3604460.3249422731 159358.87018343181 1482045.7740008456 3590264.2458520913 215868.5420023443 1481144.8819205093 3627002.4246911039 136078.14877610008 1480969.6753859874 3620499.0157117308 142581.54968756088 1481430.5140210192 3626716.7809489863 143042.38374750761 1481716.1156798219 3627002.3740711422 149084.99911191411 1482589.9413984786 3625485.9562957017 171427.87841567092 1480569.9061052168 3604460.3249422731 159358.87018343181 1482045.7740008456 3590264.2458520913 215868.5420023443 1482424.3087836325 3576493.1025094832 246707.55876346843 1480223.134388743 3613424.3309922586 136999.90726655335 1480223.1441183831 3613995.597692993 136078.18821135387 1469044.9485203838 3451938.0282400977 143042.47628808502 1457295.5005863488 3290451.7039782177 136078.25825519871 1480569.9061052168 3604460.3249422731 159358.87018343181 1477689.2520855237 3573922.2880676282 143042.44978332327 1477560.7175814456 3525984.1229379382 217465.01123449067 1482424.3087836325 3576493.1025094832 246707.55876346843 1480223.134388743 3613424.3309922586 136999.90726655335 1479893.9503339366 3601835.3503159252 148203.38150441035 1477689.2520855237 3573922.2880676282 143042.44978332327 1480969.5565408845 3614044.8903142861 152995.09057283544 1480223.134388743 3613424.3309922586 136999.90726655335 1479893.9503339366 3601835.3503159252 148203.38150441035 1480969.60388491 3617202.6072122911 147900.2194946417 1480969.5565408845 3614044.8903142861 152995.09057283544 1480569.9061052168 3604460.3249422731 159358.87018343181 1479893.9503339366 3601835.3503159252 148203.38150441035 1477689.2520855237 3573922.2880676282 143042.44978332327 1480969.5565408845 3614044.8903142861 152995.09057283544 1480569.9061052168 3604460.3249422731 159358.87018343181 1479893.9503339366 3601835.3503159252 148203.38150441035 1480969.60388491 3617202.6072122911 147900.2194946417 1480969.5565408845 3614044.8903142861 152995.09057283544 1480569.9061052168 3604460.3249422731 159358.87018343181 1477689.2520855237 3573922.2880676282 143042.44978332327 1480969.5565408845 3614044.8903142861 152995.09057283544 1477560.7175814456 3525984.1229379382 217465.01123449067 1480794.3957252223 3613995.5898221224 149084.98720078799 1481716.1156798219 3627002.3740711422 149084.99911191411 1483355.7584016903 3584476.6147886347 255034.13642457305 1487137.9684830825 3620213.363644565 283489.53296118649 1480969.5565408845 3614044.8903142861 152995.09057283544 1477560.7175814456 3525984.1229379382 217465.01123449067 1482424.3087836325 3576493.1025094832 246707.55876346843 1489551.3455988136 3618595.7303953515 341050.93238840176 1480969.60388491 3617202.6072122911 147900.2194946417 1480969.5565408845 3614044.8903142861 152995.09057283544 1482424.3087836325 3576493.1025094832 246707.55876346843 1489551.3455988136 3618595.7303953515 341050.93238840176 1481144.8571561836 3626431.1014228584 136999.91550870569 1480223.134388743 3613424.3309922586 136999.90726655335 1480969.5565408845 3614044.8903142861 152995.09057283544 1481144.6904054002 3612292.4229793441 159812.30058974668 1480569.9061052168 3604460.3249422731 159358.87018343181 1479893.9503339366 3601835.3503159252 148203.38150441035 1477689.2520855237 3573922.2880676282 143042.44978332327 1482394.8739364587 3543283.0361836045 299621.29066390864 1480794.3957252223 3613995.5898221224 149084.98720078799 1477689.2520855237 3573922.2880676282 143042.44978332327 1474795.389981057 3533085.4384817025 143042.45552166816 1482394.8739364587 3543283.0361836045 299621.29066390864 1480794.3957252223 3613995.5898221224 149084.98720078799 1480883.1773470645 3616197.6838122811 147553.24492890009 1481716.1156798219 3627002.3740711422 149084.99911191411 1482045.7740008456 3590264.2458520913 215868.5420023443 1481144.8571561836 3626431.1014228584 136999.91550870569 1481716.122754459 3626431.1156924157 150006.73111141112 1481195.6410883958 3615674.062439891 155512.74118836742 1481062.0464584185 3616260.1698053246 151525.13096715894 1481144.8571561836 3626431.1014228584 136999.91550870569 1481716.122754459 3626431.1156924157 150006.73111141112 1480969.5565408845 3614044.8903142861 152995.09057283544 1481144.6904054002 3612292.4229793441 159812.30058974668 1474795.389981057 3533085.4384817025 143042.45552166816 1481902.9341873517 3497813.8043623739 361784.71633127332 1475958.6126332376 3435090.3239906817 327642.90083362866 1469044.9485203838 3451938.0282400977 143042.47628808502 1481144.8571561836 3626431.1014228584 136999.91550870569 1481716.122754459 3626431.1156924157 150006.73111141112 1481195.6410883958 3615674.062439891 155512.74118836742 1480969.60388491 3617202.6072122911 147900.2194946417 1481716.122754459 3626431.1156924157 150006.73111141112 1482589.9413984786 3625485.9562957017 171427.87841567092 1481195.6410883958 3615674.062439891 155512.74118836742 1480969.60388491 3617202.6072122911 147900.2194946417 1481144.8571561836 3626431.1014228584 136999.91550870569 1481716.122754459 3626431.1156924157 150006.73111141112 1480969.60388491 3617202.6072122911 147900.2194946417 1480969.5565408845 3614044.8903142861 152995.09057283544 1481716.122754459 3626431.1156924157 150006.73111141112 1481716.1156798219 3627002.3740711422 149084.99911191411 1487137.9684830825 3620213.363644565 283489.53296118649 1495854.5360147962 3627002.4009885541 471003.24853216758 1481716.122754459 3626431.1156924157 150006.73111141112 1482589.9413984786 3625485.9562957017 171427.87841567092 1487137.9684830825 3620213.363644565 283489.53296118649 1495854.5360147962 3627002.4009885541 471003.24853216758 1481716.122754459 3626431.1156924157 150006.73111141112 1481716.1156798219 3627002.3740711422 149084.99911191411 1482045.7740008456 3590264.2458520913 215868.5420023443 1483355.7584016903 3584476.6147886347 255034.13642457305 1481716.122754459 3626431.1156924157 150006.73111141112 1482589.9413984786 3625485.9562957017 171427.87841567092 1482045.7740008456 3590264.2458520913 215868.5420023443 1483355.7584016903 3584476.6147886347 255034.13642457305 1481716.122754459 3626431.1156924157 150006.73111141112 1481716.1156798219 3627002.3740711422 149084.99911191411 1483355.7584016903 3584476.6147886347 255034.13642457305 1487137.9684830825 3620213.363644565 283489.53296118649 1481716.122754459 3626431.1156924157 150006.73111141112 1482589.9413984786 3625485.9562957017 171427.87841567092 1483355.7584016903 3584476.6147886347 255034.13642457305 1487137.9684830825 3620213.363644565 283489.53296118649 1480223.134388743 3613424.3309922586 136999.90726655335 1480969.5565408845 3614044.8903142861 152995.09057283544 1467544.5173834236 3426669.9348864406 149650.71576690767 1469044.9485203838 3451938.0282400977 143042.47628808502 1477689.2520855237 3573922.2880676282 143042.44978332327 1477560.7175814456 3525984.1229379382 217465.01123449067 1474795.389981057 3533085.4384817025 143042.45552166816 1482424.3087836325 3576493.1025094832 246707.55876346843 1480223.134388743 3613424.3309922586 136999.90726655335 1480969.5565408845 3614044.8903142861 152995.09057283544 1474795.389981057 3533085.4384817025 143042.45552166816 1469044.9485203838 3451938.0282400977 143042.47628808502 1480794.3957252223 3613995.5898221224 149084.98720078799 1480569.9061052168 3604460.3249422731 159358.87018343181 1482045.7740008456 3590264.2458520913 215868.5420023443 1482394.8739364587 3543283.0361836045 299621.29066390864 1480794.3957252223 3613995.5898221224 149084.98720078799 1474795.389981057 3533085.4384817025 143042.45552166816 1475958.6126332376 3435090.3239906817 327642.90083362866 1469044.9485203838 3451938.0282400977 143042.47628808502 1480794.3957252223 3613995.5898221224 149084.98720078799 1474795.389981057 3533085.4384817025 143042.45552166816 1482394.8739364587 3543283.0361836045 299621.29066390864 1475958.6126332376 3435090.3239906817 327642.90083362866 1480794.3957252223 3613995.5898221224 149084.98720078799 1479893.9503339366 3601835.3503159252 148203.38150441035 1477689.2520855237 3573922.2880676282 143042.44978332327 1482394.8739364587 3543283.0361836045 299621.29066390864 1480883.1773470645 3616197.6838122811 147553.24492890009 1481716.122754459 3626431.1156924157 150006.73111141112 1481716.1156798219 3627002.3740711422 149084.99911191411 1482045.7740008456 3590264.2458520913 215868.5420023443 1481195.6410883958 3615674.062439891 155512.74118836742 1480569.9061052168 3604460.3249422731 159358.87018343181 1480969.60388491 3617202.6072122911 147900.2194946417 1482424.3087836325 3576493.1025094832 246707.55876346843 1477560.7175814456 3525984.1229379382 217465.01123449067 1474795.389981057 3533085.4384817025 143042.45552166816 1482424.3087836325 3576493.1025094832 246707.55876346843 1481902.9341873517 3497813.8043623739 361784.71633127332 1481144.8819205093 3627002.4246911039 136078.14877610008 1481430.5140210192 3626716.7809489863 143042.38374750761 1480684.00125999 3620213.3475842266 136539.04715027899 1481144.8571561836 3626431.1014228584 136999.91550870569 1474795.389981057 3533085.4384817025 143042.45552166816 1482394.8739364587 3543283.0361836045 299621.29066390864 1482424.3087836325 3576493.1025094832 246707.55876346843 1481902.9341873517 3497813.8043623739 361784.71633127332 1481144.8819205093 3627002.4246911039 136078.14877610008 1480969.6753859874 3620499.0157117308 142581.54968756088 1480684.00125999 3620213.3475842266 136539.04715027899 1480223.1441183831 3613995.597692993 136078.18821135387 1481716.122754459 3626431.1156924157 150006.73111141112 1482589.9413984786 3625485.9562957017 171427.87841567092 1480969.60388491 3617202.6072122911 147900.2194946417 1489551.3455988136 3618595.7303953515 341050.93238840176 1481716.122754459 3626431.1156924157 150006.73111141112 1480969.60388491 3617202.6072122911 147900.2194946417 1480969.5565408845 3614044.8903142861 152995.09057283544 1489551.3455988136 3618595.7303953515 341050.93238840176 1477689.2520855237 3573922.2880676282 143042.44978332327 1474795.389981057 3533085.4384817025 143042.45552166816 1482394.8739364587 3543283.0361836045 299621.29066390864 1482424.3087836325 3576493.1025094832 246707.55876346843 1481144.8571561836 3626431.1014228584 136999.91550870569 1480223.134388743 3613424.3309922586 136999.90726655335 1481195.6410883958 3615674.062439891 155512.74118836742 1481062.0464584185 3616260.1698053246 151525.13096715894 1482589.9413984786 3625485.9562957017 171427.87841567092 1480969.60388491 3617202.6072122911 147900.2194946417 1487137.9684830825 3620213.363644565 283489.53296118649 1489551.3455988136 3618595.7303953515 341050.93238840176 1480969.60388491 3617202.6072122911 147900.2194946417 1482424.3087836325 3576493.1025094832 246707.55876346843 1487137.9684830825 3620213.363644565 283489.53296118649 1489551.3455988136 3618595.7303953515 341050.93238840176 1481144.8571561836 3626431.1014228584 136999.91550870569 1480223.134388743 3613424.3309922586 136999.90726655335 1481195.6410883958 3615674.062439891 155512.74118836742 1480969.60388491 3617202.6072122911 147900.2194946417 1480969.6753859874 3620499.0157117308 142581.54968756088 1481430.5140210192 3626716.7809489863 143042.38374750761 1480883.1773470645 3616197.6838122811 147553.24492890009 1481716.1156798219 3627002.3740711422 149084.99911191411 1481430.5140210192 3626716.7809489863 143042.38374750761 1480684.00125999 3620213.3475842266 136539.04715027899 1481144.8571561836 3626431.1014228584 136999.91550870569 1480883.1773470645 3616197.6838122811 147553.24492890009 1480223.134388743 3613424.3309922586 136999.90726655335 1481195.6410883958 3615674.062439891 155512.74118836742 1481062.0464584185 3616260.1698053246 151525.13096715894 1479893.9503339366 3601835.3503159252 148203.38150441035 1481195.6410883958 3615674.062439891 155512.74118836742 1480569.9061052168 3604460.3249422731 159358.87018343181 1479893.9503339366 3601835.3503159252 148203.38150441035 1480969.60388491 3617202.6072122911 147900.2194946417 1481716.122754459 3626431.1156924157 150006.73111141112 1482589.9413984786 3625485.9562957017 171427.87841567092 1489551.3455988136 3618595.7303953515 341050.93238840176 1495854.5360147962 3627002.4009885541 471003.24853216758 1480223.134388743 3613424.3309922586 136999.90726655335 1481195.6410883958 3615674.062439891 155512.74118836742 1479893.9503339366 3601835.3503159252 148203.38150441035 1480969.60388491 3617202.6072122911 147900.2194946417 1480794.3957252223 3613995.5898221224 149084.98720078799 1481716.1156798219 3627002.3740711422 149084.99911191411 1482045.7740008456 3590264.2458520913 215868.5420023443 1483355.7584016903 3584476.6147886347 255034.13642457305 1482589.9413984786 3625485.9562957017 171427.87841567092 1481195.6410883958 3615674.062439891 155512.74118836742 1480569.9061052168 3604460.3249422731 159358.87018343181 1482424.3087836325 3576493.1025094832 246707.55876346843 1480969.6753859874 3620499.0157117308 142581.54968756088 1480684.00125999 3620213.3475842266 136539.04715027899 1480223.1441183831 3613995.597692993 136078.18821135387 1480883.1773470645 3616197.6838122811 147553.24492890009 1481144.8571561836 3626431.1014228584 136999.91550870569 1480223.134388743 3613424.3309922586 136999.90726655335 1480969.60388491 3617202.6072122911 147900.2194946417 1480969.5565408845 3614044.8903142861 152995.09057283544 1480223.134388743 3613424.3309922586 136999.90726655335 1477689.2520855237 3573922.2880676282 143042.44978332327 1480969.5565408845 3614044.8903142861 152995.09057283544 1474795.389981057 3533085.4384817025 143042.45552166816 1480794.3957252223 3613995.5898221224 149084.98720078799 1481716.1156798219 3627002.3740711422 149084.99911191411 1487137.9684830825 3620213.363644565 283489.53296118649 1495854.5360147962 3627002.4009885541 471003.24853216758 1480569.9061052168 3604460.3249422731 159358.87018343181 1477689.2520855237 3573922.2880676282 143042.44978332327 1482394.8739364587 3543283.0361836045 299621.29066390864 1482424.3087836325 3576493.1025094832 246707.55876346843 1477689.2520855237 3573922.2880676282 143042.44978332327 1480969.5565408845 3614044.8903142861 152995.09057283544 1477560.7175814456 3525984.1229379382 217465.01123449067 1474795.389981057 3533085.4384817025 143042.45552166816 1482589.9413984786 3625485.9562957017 171427.87841567092 1480969.60388491 3617202.6072122911 147900.2194946417 1482424.3087836325 3576493.1025094832 246707.55876346843 1487137.9684830825 3620213.363644565 283489.53296118649 1480794.3957252223 3613995.5898221224 149084.98720078799 1480883.1773470645 3616197.6838122811 147553.24492890009 1480569.9061052168 3604460.3249422731 159358.87018343181 1482045.7740008456 3590264.2458520913 215868.5420023443 1482589.9413984786 3625485.9562957017 171427.87841567092 1481195.6410883958 3615674.062439891 155512.74118836742 1480969.60388491 3617202.6072122911 147900.2194946417 1482424.3087836325 3576493.1025094832 246707.55876346843 1480794.3957252223 3613995.5898221224 149084.98720078799 1480883.1773470645 3616197.6838122811 147553.24492890009 1480569.9061052168 3604460.3249422731 159358.87018343181 1479893.9503339366 3601835.3503159252 148203.38150441035 1480223.134388743 3613424.3309922586 136999.90726655335 1480223.1441183831 3613995.597692993 136078.18821135387 1474795.389981057 3533085.4384817025 143042.45552166816 1469044.9485203838 3451938.0282400977 143042.47628808502 1480969.6753859874 3620499.0157117308 142581.54968756088 1481430.5140210192 3626716.7809489863 143042.38374750761 1480684.00125999 3620213.3475842266 136539.04715027899 1480883.1773470645 3616197.6838122811 147553.24492890009 1481144.8571561836 3626431.1014228584 136999.91550870569 1480883.1773470645 3616197.6838122811 147553.24492890009 1481716.122754459 3626431.1156924157 150006.73111141112 1481062.0464584185 3616260.1698053246 151525.13096715894 1480684.00125999 3620213.3475842266 136539.04715027899 1481144.8571561836 3626431.1014228584 136999.91550870569 1480223.134388743 3613424.3309922586 136999.90726655335 1480883.1773470645 3616197.6838122811 147553.24492890009 1481144.8571561836 3626431.1014228584 136999.91550870569 1480223.134388743 3613424.3309922586 136999.90726655335 1480883.1773470645 3616197.6838122811 147553.24492890009 1481062.0464584185 3616260.1698053246 151525.13096715894 1481430.5140210192 3626716.7809489863 143042.38374750761 1481144.8571561836 3626431.1014228584 136999.91550870569 1480883.1773470645 3616197.6838122811 147553.24492890009 1481716.122754459 3626431.1156924157 150006.73111141112 1480223.134388743 3613424.3309922586 136999.90726655335 1480883.1773470645 3616197.6838122811 147553.24492890009 1481062.0464584185 3616260.1698053246 151525.13096715894 1479