<?xml version="1.0"?>
<VTKFile type="UnstructuredGrid" version="0.1" byte_order="LittleEndian">
<UnstructuredGrid>
<Piece NumberOfPoints="21736" NumberOfCells="5434">
<Points>
<DataArray type="Float64" NumberOfComponents="3" format="ascii">
0 0 0 0.06323106138816019 0.062142082272951933 0.059406074834875783 0 0.12500000000052011 0 0.097115124458785826 0.097115124458952332 0 0 0 0 0.06323106138816019 0.062142082272951933 0.059406074834875783 0.097115124458785826 0.097115124458952332 0 0.12499999999977381 0 0 0 0 0 0.06323106138816019 0.062142082272951933 0.059406074834875783 0 0 0.12499999999977381 0.097115124458877891 0 0.097115124458877891 0 0 0 0.06323106138816019 0.062142082272951933 0.059406074834875783 0.097115124458877891 0 0.097115124458877891 0.12499999999977381 0 0 0 0 0 0.06323106138816019 0.062142082272951933 0.059406074834875783 0 0.097115124458952332 0.097115124458785826 0 0.12500000000052011 0 0 0 0 0.06323106138816019 0.062142082272951933 0.059406074834875783 0 0 0.12499999999977381 0 0.097115124458952332 0.097115124458785826 0 0 0.12499999999977381 0.072551601355543657 0 0.18244710269698541 0.061562519669449138 0.059434890704512577 0.14640236215318811 0.097115124458877891 0 0.097115124458877891 0 0 0.12499999999977381 0.072551601355543657 0 0.18244710269698541 0.061562519669449138 0.059434890704512577 0.14640236215318811 0 0 0.24999999999941239 0 0 0.12499999999977381 0 0.073316820370859764 0.18109440156403181 0.061562519669449138 0.059434890704512577 0.14640236215318811 0 0 0.24999999999941239 0.072551601355543657 0 0.18244710269698541 0.061562519669449138 0.059434890704512577 0.14640236215318811 0.08935723244776661 0.086883235764133676 0.21915734371072179 0 0 0.24999999999941239 0 0.073316820370859764 0.18109440156403181 0.061562519669449138 0.059434890704512577 0.14640236215318811 0.08935723244776661 0.086883235764133676 0.21915734371072179 0 0 0.24999999999941239 0.06323106138816019 0.062142082272951933 0.059406074834875783 0 0 0.12499999999977381 0.061562519669449138 0.059434890704512577 0.14640236215318811 0.097115124458877891 0 0.097115124458877891 0.06323106138816019 0.062142082272951933 0.059406074834875783 0.061562519669449138 0.059434890704512577 0.14640236215318811 0 0.097115124458952332 0.097115124458785826 0.1289262165046228 0.1094244395929215 0.109406571350707 0.06323106138816019 0.062142082272951933 0.059406074834875783 0 0 0.12499999999977381 0.061562519669449138 0.059434890704512577 0.14640236215318811 0 0.097115124458952332 0.097115124458785826 0 0 0.12499999999977381 0 0.073316820370859764 0.18109440156403181 0.061562519669449138 0.059434890704512577 0.14640236215318811 0 0.097115124458952332 0.097115124458785826 0 0.073316820370859764 0.18109440156403181 0.061562519669449138 0.059434890704512577 0.14640236215318811 0 0.097115124458952332 0.097115124458785826 0 0.17009619771987891 0.16806798983665569 0 0.17009619771987891 0.16806798983665569 0.07291569808422331 0.1826984339026739 0.06727569697794418 0.1289262165046228 0.1094244395929215 0.109406571350707 0.1307313911228048 0.2541486156333484 0.12772207903554619 0.061562519669449138 0.059434890704512577 0.14640236215318811 0 0.097115124458952332 0.097115124458785826 0 0.17009619771987891 0.16806798983665569 0.1289262165046228 0.1094244395929215 0.109406571350707 0 0.097115124458952332 0.097115124458785826 0 0.17009619771987891 0.16806798983665569 0.07291569808422331 0.1826984339026739 0.06727569697794418 0.1289262165046228 0.1094244395929215 0.109406571350707 0 0.17009619771987891 0.16806798983665569 0.08935723244776661 0.086883235764133676 0.21915734371072179 0.098222284833748397 0.2197439980240854 0.23619361920574031 0 0.099372779675467607 0.26528889352553142 0 0.17009619771987891 0.16806798983665569 0.1289262165046228 0.1094244395929215 0.109406571350707 0.08935723244776661 0.086883235764133676 0.21915734371072179 0.098222284833748397 0.2197439980240854 0.23619361920574031 0 0.073316820370859764 0.18109440156403181 0 0.17009619771987891 0.16806798983665569 0.08935723244776661 0.086883235764133676 0.21915734371072179 0 0.099372779675467607 0.26528889352553142 0 0.073316820370859764 0.18109440156403181 0.061562519669449138 0.059434890704512577 0.14640236215318811 0 0.17009619771987891 0.16806798983665569 0.08935723244776661 0.086883235764133676 0.21915734371072179 0.061562519669449138 0.059434890704512577 0.14640236215318811 0 0.17009619771987891 0.16806798983665569 0.1289262165046228 0.1094244395929215 0.109406571350707 0.08935723244776661 0.086883235764133676 0.21915734371072179 0 0.17009619771987891 0.16806798983665569 0.098222284833748397 0.2197439980240854 0.23619361920574031 0 0.2134112930234815 0.28239564278595841 0 0.28674406688656878 0.2119407166408592 0 0.17009619771987891 0.16806798983665569 0.07291569808422331 0.1826984339026739 0.06727569697794418 0.1307313911228048 0.2541486156333484 0.12772207903554619 0 0.26324808216617729 0.1061976352567853 0 0.097115124458952332 0.097115124458785826 0 0.17009619771987891 0.16806798983665569 0 0.1810918808693138 0.074276149910445372 0.07291569808422331 0.1826984339026739 0.06727569697794418 0 0.17009619771987891 0.16806798983665569 0 0.1810918808693138 0.074276149910445372 0.07291569808422331 0.1826984339026739 0.06727569697794418 0 0.26324808216617729 0.1061976352567853 0 0.1810918808693138 0.074276149910445372 0.07291569808422331 0.1826984339026739 0.06727569697794418 0 0.25000000000104039 0 0 0.26324808216617729 0.1061976352567853 0 0.1810918808693138 0.074276149910445372 0 0.12500000000052011 0 0.07291569808422331 0.1826984339026739 0.06727569697794418 0 0.25000000000104039 0 0 0.097115124458952332 0.097115124458785826 0 0.1810918808693138 0.074276149910445372 0 0.12500000000052011 0 0.07291569808422331 0.1826984339026739 0.06727569697794418 0.06323106138816019 0.062142082272951933 0.059406074834875783 0 0.12500000000052011 0 0.07291569808422331 0.1826984339026739 0.06727569697794418 0.097115124458785826 0.097115124458952332 0 0.06323106138816019 0.062142082272951933 0.059406074834875783 0 0.097115124458952332 0.097115124458785826 0 0.12500000000052011 0 0.07291569808422331 0.1826984339026739 0.06727569697794418 0.06323106138816019 0.062142082272951933 0.059406074834875783 0 0.097115124458952332 0.097115124458785826 0.07291569808422331 0.1826984339026739 0.06727569697794418 0.1289262165046228 0.1094244395929215 0.109406571350707 0 0.12500000000052011 0 0.074276107326000582 0.18109175666468211 0 0.07291569808422331 0.1826984339026739 0.06727569697794418 0.097115124458785826 0.097115124458952332 0 0.074276107326000582 0.18109175666468211 0 0.07291569808422331 0.1826984339026739 0.06727569697794418 0.10619742233455839 0.26324746114302949 0 0 0.25000000000104039 0 0 0.12500000000052011 0 0.074276107326000582 0.18109175666468211 0 0.07291569808422331 0.1826984339026739 0.06727569697794418 0 0.25000000000104039 0 0.07291569808422331 0.1826984339026739 0.06727569697794418 0.20025673477961189 0.19140754843858721 0.073010113208307331 0.1307313911228048 0.2541486156333484 0.12772207903554619 0.10619742233455839 0.26324746114302949 0 0.07291569808422331 0.1826984339026739 0.06727569697794418 0.1680679898366586 0.17009619771986781 0 0.20025673477961189 0.19140754843858721 0.073010113208307331 0.1289262165046228 0.1094244395929215 0.109406571350707 0.07291569808422331 0.1826984339026739 0.06727569697794418 0.1680679898366586 0.17009619771986781 0 0.20025673477961189 0.19140754843858721 0.073010113208307331 0.10619742233455839 0.26324746114302949 0 0.074276107326000582 0.18109175666468211 0 0.07291569808422331 0.1826984339026739 0.06727569697794418 0.097115124458785826 0.097115124458952332 0 0.1680679898366586 0.17009619771986781 0 0.074276107326000582 0.18109175666468211 0 0.07291569808422331 0.1826984339026739 0.06727569697794418 0.1680679898366586 0.17009619771986781 0 0.10619742233455839 0.26324746114302949 0 0.06323106138816019 0.062142082272951933 0.059406074834875783 0.07291569808422331 0.1826984339026739 0.06727569697794418 0.097115124458785826 0.097115124458952332 0 0.1289262165046228 0.1094244395929215 0.109406571350707 0.07291569808422331 0.1826984339026739 0.06727569697794418 0.097115124458785826 0.097115124458952332 0 0.1680679898366586 0.17009619771986781 0 0.1289262165046228 0.1094244395929215 0.109406571350707 0.097115124458785826 0.097115124458952332 0 0.1680679898366586 0.17009619771986781 0 0.1289262165046228 0.1094244395929215 0.109406571350707 0.18109440156403669 0.073316820370859112 0 0.1680679898366586 0.17009619771986781 0 0.22141769647606749 0.080862311673354156 0.083931555580687142 0.18109440156403669 0.073316820370859112 0 0.26528889352555279 0.099372779675475503 0 0.1680679898366586 0.17009619771986781 0 0.20025673477961189 0.19140754843858721 0.073010113208307331 0.1289262165046228 0.1094244395929215 0.109406571350707 0.22141769647606749 0.080862311673354156 0.083931555580687142 0.1680679898366586 0.17009619771986781 0 0.1289262165046228 0.1094244395929215 0.109406571350707 0.22141769647606749 0.080862311673354156 0.083931555580687142 0.18109440156403669 0.073316820370859112 0 0.1680679898366586 0.17009619771986781 0 0.20025673477961189 0.19140754843858721 0.073010113208307331 0.22141769647606749 0.080862311673354156 0.083931555580687142 0.26528889352555279 0.099372779675475503 0 0.1680679898366586 0.17009619771986781 0 0.20025673477961189 0.19140754843858721 0.073010113208307331 0.28238962436783799 0.21335287803006631 0 0.21199123149808141 0.28671388592782698 0 0.20670689941440221 0.17652359486693919 0.1821174131237745 0.1289262165046228 0.1094244395929215 0.109406571350707 0.098222284833748397 0.2197439980240854 0.23619361920574031 0.1307313911228048 0.2541486156333484 0.12772207903554619 0 0.17009619771987891 0.16806798983665569 0.1289262165046228 0.1094244395929215 0.109406571350707 0.098222284833748397 0.2197439980240854 0.23619361920574031 0.1307313911228048 0.2541486156333484 0.12772207903554619 0.20025673477961189 0.19140754843858721 0.07301011320
[...]
<PointData Scalars="" Vectors="displacement," Tensors="">
<DataArray type="Float64" Name="displacement" NumberOfComponents="3" format="ascii">
-0.00081709123412901092 0.00042918881319584985 7.1177479630019335e-05 -0.00071909537290255443 0.0003705189655148738 6.4459932058463004e-05 -0.00073913198453975286 0.00039796274215893985 7.9095343082427689e-05 -0.00065951007982375284 0.00034445088401621673 8.3748915038297546e-05 -0.00081709123412901092 0.00042918881319584985 7.1177479630019335e-05 -0.00071909537290255443 0.0003705189655148738 6.4459932058463004e-05 -0.00065951007982375284 0.00034445088401621673 8.3748915038297546e-05 -0.00069205742197278315 0.00035149733461359463 7.9357222685465234e-05 -0.00081709123412901092 0.00042918881319584985 7.1177479630019335e-05 -0.00071909537290255443 0.0003705189655148738 6.4459932058463004e-05 -0.00082528101756249397 0.00042125318905043109 3.9881698698458973e-05 -0.00072626306826698451 0.00036260747885077618 5.3264395474182634e-05 -0.00081709123412901092 0.00042918881319584985 7.1177479630019335e-05 -0.00071909537290255443 0.0003705189655148738 6.4459932058463004e-05 -0.00072626306826698451 0.00036260747885077618 5.3264395474182634e-05 -0.00069205742197278315 0.00035149733461359463 7.9357222685465234e-05 -0.00081709123412901092 0.00042918881319584985 7.1177479630019335e-05 -0.00071909537290255443 0.0003705189655148738 6.4459932058463004e-05 -0.00076299660135221764 0.00039881341430770867 5.3050511250258839e-05 -0.00073913198453975286 0.00039796274215893985 7.9095343082427689e-05 -0.00081709123412901092 0.00042918881319584985 7.1177479630019335e-05 -0.00071909537290255443 0.0003705189655148738 6.4459932058463004e-05 -0.00082528101756249397 0.00042125318905043109 3.9881698698458973e-05 -0.00076299660135221764 0.00039881341430770867 5.3050511250258839e-05 -0.00082528101756249397 0.00042125318905043109 3.9881698698458973e-05 -0.00075641702342487598 0.00037245361969201165 3.0234155381604439e-05 -0.00072813832763767895 0.00036671791354848726 4.2392818963128375e-05 -0.00072626306826698451 0.00036260747885077618 5.3264395474182634e-05 -0.00082528101756249397 0.00042125318905043109 3.9881698698458973e-05 -0.00075641702342487598 0.00037245361969201165 3.0234155381604439e-05 -0.00072813832763767895 0.00036671791354848726 4.2392818963128375e-05 -0.00083344352743358835 0.00041331849882264213 8.4199291583867092e-06 -0.00082528101756249397 0.00042125318905043109 3.9881698698458973e-05 -0.00078330428952982348 0.00039944621042668115 3.0471693980748915e-05 -0.00072813832763767895 0.00036671791354848726 4.2392818963128375e-05 -0.00083344352743358835 0.00041331849882264213 8.4199291583867092e-06 -0.00075641702342487598 0.00037245361969201165 3.0234155381604439e-05 -0.00072813832763767895 0.00036671791354848726 4.2392818963128375e-05 -0.00068800964894194104 0.00033792001004460378 2.7749939996906716e-05 -0.00083344352743358835 0.00041331849882264213 8.4199291583867092e-06 -0.00078330428952982348 0.00039944621042668115 3.0471693980748915e-05 -0.00072813832763767895 0.00036671791354848726 4.2392818963128375e-05 -0.00068800964894194104 0.00033792001004460378 2.7749939996906716e-05 -0.00083344352743358835 0.00041331849882264213 8.4199291583867092e-06 -0.00071909537290255443 0.0003705189655148738 6.4459932058463004e-05 -0.00082528101756249397 0.00042125318905043109 3.9881698698458973e-05 -0.00072813832763767895 0.00036671791354848726 4.2392818963128375e-05 -0.00072626306826698451 0.00036260747885077618 5.3264395474182634e-05 -0.00071909537290255443 0.0003705189655148738 6.4459932058463004e-05 -0.00072813832763767895 0.00036671791354848726 4.2392818963128375e-05 -0.00076299660135221764 0.00039881341430770867 5.3050511250258839e-05 -0.00062729015054683668 0.00031463267888064698 5.9433344932103386e-05 -0.00071909537290255443 0.0003705189655148738 6.4459932058463004e-05 -0.00082528101756249397 0.00042125318905043109 3.9881698698458973e-05 -0.00072813832763767895 0.00036671791354848726 4.2392818963128375e-05 -0.00076299660135221764 0.00039881341430770867 5.3050511250258839e-05 -0.00082528101756249397 0.00042125318905043109 3.9881698698458973e-05 -0.00078330428952982348 0.00039944621042668115 3.0471693980748915e-05 -0.00072813832763767895 0.00036671791354848726 4.2392818963128375e-05 -0.00076299660135221764 0.00039881341430770867 5.3050511250258839e-05 -0.00078330428952982348 0.00039944621042668115 3.0471693980748915e-05 -0.00072813832763767895 0.00036671791354848726 4.2392818963128375e-05 -0.00076299660135221764 0.00039881341430770867 5.3050511250258839e-05 -0.00072205402668890724 0.0003761944485069758 3.9922089323193334e-05 -0.00072205402668890724 0.0003761944485069758 3.9922089323193334e-05 -0.00063452064720338893 0.00033361844492089585 7.0872290310301374e-05 -0.00062729015054683668 0.00031463267888064698 5.9433344932103386e-05 -0.00053568563515710296 0.00027565152893765373 6.442023215348335e-05 -0.00072813832763767895 0.00036671791354848726 4.2392818963128375e-05 -0.00076299660135221764 0.00039881341430770867 5.3050511250258839e-05 -0.00072205402668890724 0.0003761944485069758 3.9922089323193334e-05 -0.00062729015054683668 0.00031463267888064698 5.9433344932103386e-05 -0.00076299660135221764 0.00039881341430770867 5.3050511250258839e-05 -0.00072205402668890724 0.0003761944485069758 3.9922089323193334e-05 -0.00063452064720338893 0.00033361844492089585 7.0872290310301374e-05 -0.00062729015054683668 0.00031463267888064698 5.9433344932103386e-05 -0.00072205402668890724 0.0003761944485069758 3.9922089323193334e-05 -0.00068800964894194104 0.00033792001004460378 2.7749939996906716e-05 -0.0005972324649052939 0.0002980053699280242 3.2817646910008751e-05 -0.00077262094538917267 0.00038762145754707889 1.0934648249878162e-05 -0.00072205402668890724 0.0003761944485069758 3.9922089323193334e-05 -0.00062729015054683668 0.00031463267888064698 5.9433344932103386e-05 -0.00068800964894194104 0.00033792001004460378 2.7749939996906716e-05 -0.0005972324649052939 0.0002980053699280242 3.2817646910008751e-05 -0.00078330428952982348 0.00039944621042668115 3.0471693980748915e-05 -0.00072205402668890724 0.0003761944485069758 3.9922089323193334e-05 -0.00068800964894194104 0.00033792001004460378 2.7749939996906716e-05 -0.00077262094538917267 0.00038762145754707889 1.0934648249878162e-05 -0.00078330428952982348 0.00039944621042668115 3.0471693980748915e-05 -0.00072813832763767895 0.00036671791354848726 4.2392818963128375e-05 -0.00072205402668890724 0.0003761944485069758 3.9922089323193334e-05 -0.00068800964894194104 0.00033792001004460378 2.7749939996906716e-05 -0.00072813832763767895 0.00036671791354848726 4.2392818963128375e-05 -0.00072205402668890724 0.0003761944485069758 3.9922089323193334e-05 -0.00062729015054683668 0.00031463267888064698 5.9433344932103386e-05 -0.00068800964894194104 0.00033792001004460378 2.7749939996906716e-05 -0.00072205402668890724 0.0003761944485069758 3.9922089323193334e-05 -0.0005972324649052939 0.0002980053699280242 3.2817646910008751e-05 -0.0007025170101145502 0.00035815603994404828 1.3984463351569245e-05 -0.00065153954764603 0.00034426083537516188 3.6133037321178755e-05 -0.00072205402668890724 0.0003761944485069758 3.9922089323193334e-05 -0.00063452064720338893 0.00033361844492089585 7.0872290310301374e-05 -0.00053568563515710296 0.00027565152893765373 6.442023215348335e-05 -0.00065913407176368085 0.00035670045858934277 6.1068812976261213e-05 -0.00076299660135221764 0.00039881341430770867 5.3050511250258839e-05 -0.00072205402668890724 0.0003761944485069758 3.9922089323193334e-05 -0.0007088618571280482 0.00037933947857327294 6.4021236240244315e-05 -0.00063452064720338893 0.00033361844492089585 7.0872290310301374e-05 -0.00072205402668890724 0.0003761944485069758 3.9922089323193334e-05 -0.0007088618571280482 0.00037933947857327294 6.4021236240244315e-05 -0.00063452064720338893 0.00033361844492089585 7.0872290310301374e-05 -0.00065913407176368085 0.00035670045858934277 6.1068812976261213e-05 -0.0007088618571280482 0.00037933947857327294 6.4021236240244315e-05 -0.00063452064720338893 0.00033361844492089585 7.0872290310301374e-05 -0.00066006149969002447 0.00036636915182849104 8.6540399777933314e-05 -0.00065913407176368085 0.00035670045858934277 6.1068812976261213e-05 -0.0007088618571280482 0.00037933947857327294 6.4021236240244315e-05 -0.00073913198453975286 0.00039796274215893985 7.9095343082427689e-05 -0.00063452064720338893 0.00033361844492089585 7.0872290310301374e-05 -0.00066006149969002447 0.00036636915182849104 8.6540399777933314e-05 -0.00076299660135221764 0.00039881341430770867 5.3050511250258839e-05 -0.0007088618571280482 0.00037933947857327294 6.4021236240244315e-05 -0.00073913198453975286 0.00039796274215893985 7.9095343082427689e-05 -0.00063452064720338893 0.00033361844492089585 7.0872290310301374e-05 -0.00071909537290255443 0.0003705189655148738 6.4459932058463004e-05 -0.00073913198453975286 0.00039796274215893985 7.9095343082427689e-05 -0.00063452064720338893 0.00033361844492089585 7.0872290310301374e-05 -0.00065951007982375284 0.00034445088401621673 8.3748915038297546e-05 -0.00071909537290255443 0.0003705189655148738 6.4459932058463004e-05 -0.00076299660135221764 0.00039881341430770867 5.3050511250258839e-05 -0.00073913198453975286 0.00039796274215893985 7.9095343082427689e-05 -0.00063452064720338893 0.00033361844492089585 7.0872290310301374e-05 -0.00071909537290255443 0.0003705189655148738 6.4459932058463004e-05 -0.00076299660135221764 0.00039881341430770867 5.3050511250258839e-05 -0.00063452064720338893 0.00033361844492089585 7.0872290310301374e-05 -0.00062729015054683668 0.00031463267888064698 5.9433344932103386e-05 -0.00073913198453975286 0.00039796274215893985 7.9095343082427689e-05 -0.00062958527797444153 0.00033734498003383593 8.7531304104213829e-05 -0.00063452064720338893 0.00033361844492089585 7.0872290310301374e-05 -0.00065951007982375284 0.00034445088401621673 8.3748915038297546e-05 -0.00062958527797444153 0.00033734498003383593 8.7531304104213829e-05 -0.00063452064720338893 0.00033361844492089585 7.0872290310301374e-05 -0.00054544492503597172 0.00029639743590199641 9.4779742219403961e-05 -0.00066006149969002447 0.00036636915182849104 8.6540399777933314e-05 -0.00073913198453975286 0.00039796274215893985 7.9095343082427689e-05 -0.00062958527797444153 0.00033734498003383593 8.7531304104213829e-05 -0.00063452064720338893 0.00033361844492089585 7.0872290310301374e-05 -0.00066006149969002447 0.00036636915182849104 8.6540399777933314e-05 -0.00063452064720338893 0.00033361844492089585 7.0872290310301374e-05 -0.00050234428459612786 0.00025224992835929408 7.8769462856058213e-05 -0.00053568563515710296 0.00027565152893765373 6.442023215348335e-05 -0.00054544492503597172 0.00029639743590199641 9.4779742219403961e-05 -0.00063452064720338893 0.00033361844492089585 7.0872290310301374e-05 -0.00054302972653037069 0.00028214970901408782 9.3229254342077779e-05 -0.00050234428459612786 0.00025224992835929408 7.8769462856058213e-05 -0.00062729015054683668 0.00031463267888064698 5.9433344932103386e-05 -0.00063452064720338893 0.00033361844492089585 7.0872290310301374e-05 -0.00054302972653037069 0.00028214970901408782 9.3229254342077779e-05 -0.00050234428459612786 0.00025224992835929408 7.8769462856058213e-05 -0.00054544492503597172 0.00029639743590199641 9.4779742219403961e-05 -0.00062958527797444153 0.00033734498003383593 8.7531304104213829e-05 -0.00063452064720338893 0.00033361844492089585 7.0872290310301374e-05 -0.00065951007982375284 0.00034445088401621673 8.3748915038297546e-05 -0.00054302972653037069 0.00028214970901408782 9.3229254342077779e-05 -0.00062958527797444153 0.00033734498003383593 8.7531304104213829e-05 -0.00063452064720338893 0.00033361844492089585 7.0872290310301374e-05 -0.00054302972653037069 0.00028214970901408782 9.3229254342077779e-05 -0.00054544492503597172 0.00029639743590199641 9.4779742219403961e-05 -0.00071909537290255443 0.0003705189655148738 6.4459932058463004e-05 -0.00063452064720338893 0.00033361844492089585 7.0872290310301374e-05 -0.00065951007982375284 0.00034445088401621673 8.3748915038297546e-05 -0.00062729015054683668 0.00031463267888064698 5.9433344932103386e-05 -0.00063452064720338893 0.00033361844492089585 7.0872290310301374e-05 -0.00065951007982375284 0.00034445088401621673 8.3748915038297546e-05 -0.00054302972653037069 0.00028214970901408782 9.3229254342077779e-05 -0.00062729015054683668 0.00031463267888064698 5.9433344932103386e-05 -0.00065951007982375284 0.00034445088401621673 8.3748915038297546e-05 -0.00054302972653037069 0.00028214970901408782 9.3229254342077779e-05 -0.00062729015054683668 0.00031463267888064698 5.9433344932103386e-05 -0.00059063382692302129 0.00029858770159813799 8.7700454522972717e-05 -0.00054302972653037069 0.00028214970901408782 9.3229254342077779e-05 -0.00055122928544350009 0.00026644791935295472 7.0022465736334428e-05 -0.00059063382692302129 0.00029858770159813799 8.7700454522972717e-05 -0.00049088361671173312 0.00024075996263733964 9.483920215102776e-05 -0.00054302972653037069 0.00028214970901408782 9.3229254342077779e-05 -0.00050234428459612786 0.00025224992835929408 7.8769462856058213e-05 -0.00062729015054683668 0.00031463267888064698 5.9433344932103386e-05 -0.00055122928544350009 0.00026644791935295472 7.0022465736334428e-05 -0.00054302972653037069 0.00028214970901408782 9.3229254342077779e-05 -0.00062729015054683668 0.00031463267888064698 5.9433344932103386e-05 -0.00055122928544350009 0.00026644791935295472 7.0022465736334428e-05 -0.00059063382692302129 0.00029858770159813799 8.7700454522972717e-05 -0.00054302972653037069 0.00028214970901408782 9.3229254342077779e-05 -0.00050234428459612786 0.00025224992835929408 7.8769462856058213e-05 -0.00055122928544350009 0.00026644791935295472 7.0022465736334428e-05 -0.00049088361671173312 0.00024075996263733964 9.483920215102776e-05 -0.00054302972653037069 0.00028214970901408782 9.3229254342077779e-05 -0.00050234428459612786 0.00025224992835929408 7.8769462856058213e-05 -0.0004022888065377598 0.00020158164290688666 0.00010363593491119916 -0.00042493102245839281 0.00022510350441082625 0.0001038436816964258 -0.00051244506670979572 0.0002450549335529303 5.103455104586121e-05 -0.00062729015054683668 0.00031463267888064698 5.9433344932103386e-05 -0.0005972324649052939 0.0002980053699280242 3.2817646910008751e-05 -0.00053568563515710296 0.00027565152893765373 6.442023215348335e-05 -0.00072205402668890724 0.0003761944485069758 3.9922089323193334e-05 -0.00062729015054683668 0.00031463267888064698 5.9433344932103386e-05 -0.0005972324649052939 0.0002980053699280242 3.2817646910008751e-05 -0.00053568563515710296 0.00027565152893765373 6.442023215348335e-05 -0.00050234428459612786 0.00025224992835929408 7.8769462856058213e-05 -0.00051244506670979572 0.0002450549335529303 5.103455104586121e-05 -0.00062729015054683668 0.00031463267888064698 5.9433344932103386e-05 -0.00053568563515710296 0.00027565152893765373 6.442023215348335e-05 -0.00050234428459612786 0.00025224992835929408 7.8769462856058213e-05 -0.00051244506670979572 0.0002450549335529303 5.103455104586121e-05 -0.00039980970654083787 0.00019312250158149726 8.0409039912413214e-05 -0.00053568563515710296 0.00027565152893765373 6.442023215348335e-05 -0.00063452064720338893 0.00033361844492089585 7.0872290310301374e-05 -0.00050234428459612786 0.00025224992835929408 7.8769462856058213e-05 -0.00062729015054683668 0.00031463267888064698 5.9433344932103386e-05 -0.00053568563515710296 0.00027565152893765373 6.442023215348335e-05 -0.00051244506670979572 0.0002450549335529303 5.103455104586121e-05 -0.00062729015054683668 0.00031463267888064698 5.9433344932103386e-05 -0.00068800964894194104 0.00033792001004460378 2.7749939996906716e-05 -0.00057181848864057492 0.00026642597211726167 4.0369940462712527e-05 -0.00051244506670979572 0.0002450549335529303 5.103455104586121e-05 -0.00062729015054683668 0.00031463267888064698 5.9433344932103386e-05 -0.00068800964894194104 0.00033792001004460378 2.7749939996906716e-05 -0.0005972324649052939 0.0002980053699280242 3.2817646910008751e-05 -0.00051244506670979572 0.0002450549335529303 5.103455104586121e-05 -0.00062729015054683668 0.00031463267888064698 5.9433344932103386e-05 -0.00057181848864057492 0.00026642597211726167 4.0369940462712527e-05 -0.00055122928544350009 0.00026644791935295472 7.0022465736334428e-05 -0.00050234428459612786 0.00025224992835929408 7.8769462856058213e-05 -0.00051244506670979572 0.0002450549335529303 5.103455104586121e-05 -0.00062729015054683668 0.00031463267888064698 5.9433344932103386e-05 -0.00055122928544350009 0.00026644791935295472 7.0022465736334428e-05 -0.00062729015054683668 0.00031463267888064698 5.9433344932103386e-05 -0.00057181848864057492 0.00026642597211726167 4.0369940462712527e-05 -0.00065996994088155197 0.00031389300025681777 3.9668148372092614e-05 -0.00055122928544350009 0.00026644791935295472 7.0022465736334428e-05 -0.00065996994088155197 0.00031389300025681777 3.9668148372092614e-05 -0.00064069877995075989 0.00031215605528964999 6.4640753609979614e-05 -0.00055122928544350009 0.00026644791935295472 7.0022465736334428e-05 -0.00055821291057624699 0.00025876999809879443 6.3503962302151191e-05 -0.00057181848864057492 0.00026642597211726167 4.0369940462712527e-05 -0.00065996994088155197 0.00031389300025681777 3.9668148372092614e-05 -0.00055122928544350009 0.00026644791935295472 7.0022465736334428e-05 -0.00055821291057624699 0.00025876999809879443 6.3503962302151191e-05 -0.00062729015054683668 0.00031463267888064698 5.9433344932103386e-05 -0.00065996994088155197 0.00031389300025681777 3.9668148372092614e-05 -0.00064069877995075989 0.00031215605528964999 6.4640753609979614e-05 -0.00055122928544350009 0.00026644791935295472 7.0022465736334428e-05 -0.00071909537290255443 0.0003705189655148738 6.4459932058463004e-05 -0.00072813832763767895 0.00036671791354848726 4.2392818963128375e-05 -0.00062729015054683668 0.00031463267888064698 5.9433344932103386e-05 -0.00072626306826698451 0.00036260747885077618 5.3264395474182634e-05 -0.00072813832763767895 0.00036671791354848726 4.2392818963128375e-05 -0.00062729015054683668 0.00031463267888064698 5.9433344932103386e-05 -0.00065996994088155197 0.00031389300025681777 3.9668148372092614e-05 -0.00072626306826698451 0.00036260747885077618 5.3264395474182634e-05 -0.00062729015054683668 0.00031463267888064698 5.9433344932103386e-05 -0.00065996994088155197 0.00031389300025681777 3.9668148372092614e-05 -0.00072626306826698451 0.00036260747885077618 5.3264395474182634e-05 -0.00064069877995075989 0.00031215605528964999 6.4640753609979614e-05 -0.00072813832763767895 0.00036671791354848726 4.2392818963128375e-05 -0.00062729015054683668 0.00031463267888064698 5.9433344932103386e-05 -0.00068800964894194104 0.00033792001004460378 2.7749939996906716e-05 -0.00065996994088155197 0.00031389300025681777 3.9668148372092614e-05 -0.00075641702342487598 0.00037245361969201165 3.0234155381604439e-05 -0.00072813832763767895 0.00036671791354848726 4.2392818963128375e-05 -0.00068800964894194104 0.00033792001004460378 2.7749939996906716e-05 -0.00065996994088155197 0.00031389300025681777 3.9668148372092614e-05 -0.00075641702342487598 0.00037245361969201165 3.0234155381604439e-05 -0.00068800964894194104 0.00033792001004460378 2.7749939996906716e-05 -0.00065996994088155197 0.00031389300025681777 3.9668148372092614e-05 -0.0007370626693111045 0.00035128223613189059 9.8461919281822859e-06 -0.00062729015054683668 0.00031463267888064698 5.9433344932103386e-05 -0.00068800964894194104 0.00033792001004460378 2.7749939996906716e-05 -0.00057181848864057492 0.00026642597211726167 4.0369940462712527e-05 -0.00065996994088155197 0.00031389300025681777 3.9668148372092614e-05 -0.00068800964894194104 0.00033792001004460378 2.7749939996906716e-05 -0.00057181848864057492 0.00026642597211726167 4.0369940462712527e-05 -0.00065996994088155197 0.00031389300025681777 3.9668148372092614e-05 -0.0007370626693111045 0.00035128223613189059 9.8461919281822859e-06 -0.00057181848864057492 0.00026642597211726167 4.03699