<?xml version="1.0"?>
<VTKFile type="UnstructuredGrid" version="0.1" byte_order="LittleEndian">
<UnstructuredGrid>
<Piece NumberOfPoints="21736" NumberOfCells="5434">
<Points>
<DataArray type="Float64" NumberOfComponents="3" format="ascii">
0 0 0 0.06323106138816019 0.062142082272951933 0.059406074834875783 0 0.12500000000052011 0 0.097115124458785826 0.097115124458952332 0 0 0 0 0.06323106138816019 0.062142082272951933 0.059406074834875783 0.097115124458785826 0.097115124458952332 0 0.12499999999977381 0 0 0 0 0 0.06323106138816019 0.062142082272951933 0.059406074834875783 0 0 0.12499999999977381 0.097115124458877891 0 0.097115124458877891 0 0 0 0.06323106138816019 0.062142082272951933 0.059406074834875783 0.097115124458877891 0 0.097115124458877891 0.12499999999977381 0 0 0 0 0 0.06323106138816019 0.062142082272951933 0.059406074834875783 0 0.097115124458952332 0.097115124458785826 0 0.12500000000052011 0 0 0 0 0.06323106138816019 0.062142082272951933 0.059406074834875783 0 0 0.12499999999977381 0 0.097115124458952332 0.097115124458785826 0 0 0.12499999999977381 0.072551601355543657 0 0.18244710269698541 0.061562519669449138 0.059434890704512577 0.14640236215318811 0.097115124458877891 0 0.097115124458877891 0 0 0.12499999999977381 0.072551601355543657 0 0.18244710269698541 0.061562519669449138 0.059434890704512577 0.14640236215318811 0 0 0.24999999999941239 0 0 0.12499999999977381 0 0.073316820370859764 0.18109440156403181 0.061562519669449138 0.059434890704512577 0.14640236215318811 0 0 0.24999999999941239 0.072551601355543657 0 0.18244710269698541 0.061562519669449138 0.059434890704512577 0.14640236215318811 0.08935723244776661 0.086883235764133676 0.21915734371072179 0 0 0.24999999999941239 0 0.073316820370859764 0.18109440156403181 0.061562519669449138 0.059434890704512577 0.14640236215318811 0.08935723244776661 0.086883235764133676 0.21915734371072179 0 0 0.24999999999941239 0.06323106138816019 0.062142082272951933 0.059406074834875783 0 0 0.12499999999977381 0.061562519669449138 0.059434890704512577 0.14640236215318811 0.097115124458877891 0 0.097115124458877891 0.06323106138816019 0.062142082272951933 0.059406074834875783 0.061562519669449138 0.059434890704512577 0.14640236215318811 0 0.097115124458952332 0.097115124458785826 0.1289262165046228 0.1094244395929215 0.109406571350707 0.06323106138816019 0.062142082272951933 0.059406074834875783 0 0 0.12499999999977381 0.061562519669449138 0.059434890704512577 0.14640236215318811 0 0.097115124458952332 0.097115124458785826 0 0 0.12499999999977381 0 0.073316820370859764 0.18109440156403181 0.061562519669449138 0.059434890704512577 0.14640236215318811 0 0.097115124458952332 0.097115124458785826 0 0.073316820370859764 0.18109440156403181 0.061562519669449138 0.059434890704512577 0.14640236215318811 0 0.097115124458952332 0.097115124458785826 0 0.17009619771987891 0.16806798983665569 0 0.17009619771987891 0.16806798983665569 0.07291569808422331 0.1826984339026739 0.06727569697794418 0.1289262165046228 0.1094244395929215 0.109406571350707 0.1307313911228048 0.2541486156333484 0.12772207903554619 0.061562519669449138 0.059434890704512577 0.14640236215318811 0 0.097115124458952332 0.097115124458785826 0 0.17009619771987891 0.16806798983665569 0.1289262165046228 0.1094244395929215 0.109406571350707 0 0.097115124458952332 0.097115124458785826 0 0.17009619771987891 0.16806798983665569 0.07291569808422331 0.1826984339026739 0.06727569697794418 0.1289262165046228 0.1094244395929215 0.109406571350707 0 0.17009619771987891 0.16806798983665569 0.08935723244776661 0.086883235764133676 0.21915734371072179 0.098222284833748397 0.2197439980240854 0.23619361920574031 0 0.099372779675467607 0.26528889352553142 0 0.17009619771987891 0.16806798983665569 0.1289262165046228 0.1094244395929215 0.109406571350707 0.08935723244776661 0.086883235764133676 0.21915734371072179 0.098222284833748397 0.2197439980240854 0.23619361920574031 0 0.073316820370859764 0.18109440156403181 0 0.17009619771987891 0.16806798983665569 0.08935723244776661 0.086883235764133676 0.21915734371072179 0 0.099372779675467607 0.26528889352553142 0 0.073316820370859764 0.18109440156403181 0.061562519669449138 0.059434890704512577 0.14640236215318811 0 0.17009619771987891 0.16806798983665569 0.08935723244776661 0.086883235764133676 0.21915734371072179 0.061562519669449138 0.059434890704512577 0.14640236215318811 0 0.17009619771987891 0.16806798983665569 0.1289262165046228 0.1094244395929215 0.109406571350707 0.08935723244776661 0.086883235764133676 0.21915734371072179 0 0.17009619771987891 0.16806798983665569 0.098222284833748397 0.2197439980240854 0.23619361920574031 0 0.2134112930234815 0.28239564278595841 0 0.28674406688656878 0.2119407166408592 0 0.17009619771987891 0.16806798983665569 0.07291569808422331 0.1826984339026739 0.06727569697794418 0.1307313911228048 0.2541486156333484 0.12772207903554619 0 0.26324808216617729 0.1061976352567853 0 0.097115124458952332 0.097115124458785826 0 0.17009619771987891 0.16806798983665569 0 0.1810918808693138 0.074276149910445372 0.07291569808422331 0.1826984339026739 0.06727569697794418 0 0.17009619771987891 0.16806798983665569 0 0.1810918808693138 0.074276149910445372 0.07291569808422331 0.1826984339026739 0.06727569697794418 0 0.26324808216617729 0.1061976352567853 0 0.1810918808693138 0.074276149910445372 0.07291569808422331 0.1826984339026739 0.06727569697794418 0 0.25000000000104039 0 0 0.26324808216617729 0.1061976352567853 0 0.1810918808693138 0.074276149910445372 0 0.12500000000052011 0 0.07291569808422331 0.1826984339026739 0.06727569697794418 0 0.25000000000104039 0 0 0.097115124458952332 0.097115124458785826 0 0.1810918808693138 0.074276149910445372 0 0.12500000000052011 0 0.07291569808422331 0.1826984339026739 0.06727569697794418 0.06323106138816019 0.062142082272951933 0.059406074834875783 0 0.12500000000052011 0 0.07291569808422331 0.1826984339026739 0.06727569697794418 0.097115124458785826 0.097115124458952332 0 0.06323106138816019 0.062142082272951933 0.059406074834875783 0 0.097115124458952332 0.097115124458785826 0 0.12500000000052011 0 0.07291569808422331 0.1826984339026739 0.06727569697794418 0.06323106138816019 0.062142082272951933 0.059406074834875783 0 0.097115124458952332 0.097115124458785826 0.07291569808422331 0.1826984339026739 0.06727569697794418 0.1289262165046228 0.1094244395929215 0.109406571350707 0 0.12500000000052011 0 0.074276107326000582 0.18109175666468211 0 0.07291569808422331 0.1826984339026739 0.06727569697794418 0.097115124458785826 0.097115124458952332 0 0.074276107326000582 0.18109175666468211 0 0.07291569808422331 0.1826984339026739 0.06727569697794418 0.10619742233455839 0.26324746114302949 0 0 0.25000000000104039 0 0 0.12500000000052011 0 0.074276107326000582 0.18109175666468211 0 0.07291569808422331 0.1826984339026739 0.06727569697794418 0 0.25000000000104039 0 0.07291569808422331 0.1826984339026739 0.06727569697794418 0.20025673477961189 0.19140754843858721 0.073010113208307331 0.1307313911228048 0.2541486156333484 0.12772207903554619 0.10619742233455839 0.26324746114302949 0 0.07291569808422331 0.1826984339026739 0.06727569697794418 0.1680679898366586 0.17009619771986781 0 0.20025673477961189 0.19140754843858721 0.073010113208307331 0.1289262165046228 0.1094244395929215 0.109406571350707 0.07291569808422331 0.1826984339026739 0.06727569697794418 0.1680679898366586 0.17009619771986781 0 0.20025673477961189 0.19140754843858721 0.073010113208307331 0.10619742233455839 0.26324746114302949 0 0.074276107326000582 0.18109175666468211 0 0.07291569808422331 0.1826984339026739 0.06727569697794418 0.097115124458785826 0.097115124458952332 0 0.1680679898366586 0.17009619771986781 0 0.074276107326000582 0.18109175666468211 0 0.07291569808422331 0.1826984339026739 0.06727569697794418 0.1680679898366586 0.17009619771986781 0 0.10619742233455839 0.26324746114302949 0 0.06323106138816019 0.062142082272951933 0.059406074834875783 0.07291569808422331 0.1826984339026739 0.06727569697794418 0.097115124458785826 0.097115124458952332 0 0.1289262165046228 0.1094244395929215 0.109406571350707 0.07291569808422331 0.1826984339026739 0.06727569697794418 0.097115124458785826 0.097115124458952332 0 0.1680679898366586 0.17009619771986781 0 0.1289262165046228 0.1094244395929215 0.109406571350707 0.097115124458785826 0.097115124458952332 0 0.1680679898366586 0.17009619771986781 0 0.1289262165046228 0.1094244395929215 0.109406571350707 0.18109440156403669 0.073316820370859112 0 0.1680679898366586 0.17009619771986781 0 0.22141769647606749 0.080862311673354156 0.083931555580687142 0.18109440156403669 0.073316820370859112 0 0.26528889352555279 0.099372779675475503 0 0.1680679898366586 0.17009619771986781 0 0.20025673477961189 0.19140754843858721 0.073010113208307331 0.1289262165046228 0.1094244395929215 0.109406571350707 0.22141769647606749 0.080862311673354156 0.083931555580687142 0.1680679898366586 0.17009619771986781 0 0.1289262165046228 0.1094244395929215 0.109406571350707 0.22141769647606749 0.080862311673354156 0.083931555580687142 0.18109440156403669 0.073316820370859112 0 0.1680679898366586 0.17009619771986781 0 0.20025673477961189 0.19140754843858721 0.073010113208307331 0.22141769647606749 0.080862311673354156 0.083931555580687142 0.26528889352555279 0.099372779675475503 0 0.1680679898366586 0.17009619771986781 0 0.20025673477961189 0.19140754843858721 0.073010113208307331 0.28238962436783799 0.21335287803006631 0 0.21199123149808141 0.28671388592782698 0 0.20670689941440221 0.17652359486693919 0.1821174131237745 0.1289262165046228 0.1094244395929215 0.109406571350707 0.098222284833748397 0.2197439980240854 0.23619361920574031 0.1307313911228048 0.2541486156333484 0.12772207903554619 0 0.17009619771987891 0.16806798983665569 0.1289262165046228 0.1094244395929215 0.109406571350707 0.098222284833748397 0.2197439980240854 0.23619361920574031 0.1307313911228048 0.2541486156333484 0.12772207903554619 0.20025673477961189 0.19140754843858721 0.07301011320
[...]
<PointData Scalars="" Vectors="displacement," Tensors="">
<DataArray type="Float64" Name="displacement" NumberOfComponents="3" format="ascii">
2.5136736251257548e-17 -2.0923343702626362e-17 -0.00083899035607234757 9.8674063208640305e-05 -4.9841123878594888e-05 -0.00073380349763019898 1.9796313204270559e-17 -2.0907759087807324e-17 -0.0007341165615628593 2.1271726945980021e-17 -1.7663487466437686e-17 -0.00067603305037282921 2.5136736251257548e-17 -2.0923343702626362e-17 -0.00083899035607234757 9.8674063208640305e-05 -4.9841123878594888e-05 -0.00073380349763019898 2.1271726945980021e-17 -1.7663487466437686e-17 -0.00067603305037282921 2.5341636902883297e-17 -1.7217957411571463e-17 -0.00073411656156349573 2.5136736251257548e-17 -2.0923343702626362e-17 -0.00083899035607234757 9.8674063208640305e-05 -4.9841123878594888e-05 -0.00073380349763019898 0.00020762620549060788 -0.00010487379450888101 -0.00083899035607234757 0.00016130915829745666 -8.1478652849786961e-05 -0.00075751170322258454 2.5136736251257548e-17 -2.0923343702626362e-17 -0.00083899035607234757 9.8674063208640305e-05 -4.9841123878594888e-05 -0.00073380349763019898 0.00016130915829745666 -8.1478652849786961e-05 -0.00075751170322258454 2.5341636902883297e-17 -1.7217957411571463e-17 -0.00073411656156349573 2.5136736251257548e-17 -2.0923343702626362e-17 -0.00083899035607234757 9.8674063208640305e-05 -4.9841123878594888e-05 -0.00073380349763019898 0.00016130915829730023 -8.147865284971348e-05 -0.00075751170322251396 1.9796313204270559e-17 -2.0907759087807324e-17 -0.0007341165615628593 2.5136736251257548e-17 -2.0923343702626362e-17 -0.00083899035607234757 9.8674063208640305e-05 -4.9841123878594888e-05 -0.00073380349763019898 0.00020762620549060788 -0.00010487379450888101 -0.00083899035607234757 0.00016130915829730023 -8.147865284971348e-05 -0.00075751170322251396 0.00020762620549060788 -0.00010487379450888101 -0.00083899035607234757 0.00030304639708637871 -0.00015307135965613954 -0.00077812026221744143 0.000243175735430259 -0.00012283016995276225 -0.00073747469565886223 0.00016130915829745666 -8.1478652849786961e-05 -0.00075751170322258454 0.00020762620549060788 -0.00010487379450888101 -0.00083899035607234757 0.00030304639708637871 -0.00015307135965613954 -0.00077812026221744143 0.000243175735430259 -0.00012283016995276225 -0.00073747469565886223 0.00041525241098096493 -0.00020974758901762654 -0.00083899035607234605 0.00020762620549060788 -0.00010487379450888101 -0.00083899035607234757 0.00030079954745918858 -0.00015193645645094492 -0.00077747825084330149 0.000243175735430259 -0.00012283016995276225 -0.00073747469565886223 0.00041525241098096493 -0.00020974758901762654 -0.00083899035607234605 0.00030304639708637871 -0.00015307135965613954 -0.00077812026221744143 0.000243175735430259 -0.00012283016995276225 -0.00073747469565886223 0.00036402246144110069 -0.00018387089783575682 -0.00069112630289288376 0.00041525241098096493 -0.00020974758901762654 -0.00083899035607234605 0.00030079954745918858 -0.00015193645645094492 -0.00077747825084330149 0.000243175735430259 -0.00012283016995276225 -0.00073747469565886223 0.00036402246144110069 -0.00018387089783575682 -0.00069112630289288376 0.00041525241098096493 -0.00020974758901762654 -0.00083899035607234605 9.8674063208640305e-05 -4.9841123878594888e-05 -0.00073380349763019898 0.00020762620549060788 -0.00010487379450888101 -0.00083899035607234757 0.000243175735430259 -0.00012283016995276225 -0.00073747469565886223 0.00016130915829745666 -8.1478652849786961e-05 -0.00075751170322258454 9.8674063208640305e-05 -4.9841123878594888e-05 -0.00073380349763019898 0.000243175735430259 -0.00012283016995276225 -0.00073747469565886223 0.00016130915829730023 -8.147865284971348e-05 -0.00075751170322251396 0.0001817253701226057 -9.1791058254206678e-05 -0.00063901645424298682 9.8674063208640305e-05 -4.9841123878594888e-05 -0.00073380349763019898 0.00020762620549060788 -0.00010487379450888101 -0.00083899035607234757 0.000243175735430259 -0.00012283016995276225 -0.00073747469565886223 0.00016130915829730023 -8.147865284971348e-05 -0.00075751170322251396 0.00020762620549060788 -0.00010487379450888101 -0.00083899035607234757 0.00030079954745918858 -0.00015193645645094492 -0.00077747825084330149 0.000243175735430259 -0.00012283016995276225 -0.00073747469565886223 0.00016130915829730023 -8.147865284971348e-05 -0.00075751170322251396 0.00030079954745918858 -0.00015193645645094492 -0.00077747825084330149 0.000243175735430259 -0.00012283016995276225 -0.00073747469565886223 0.00016130915829730023 -8.147865284971348e-05 -0.00075751170322251396 0.00027916255195424068 -0.00014100742263744871 -0.00069628128658078242 0.00027916255195424068 -0.00014100742263744871 -0.00069628128658078242 0.00011174558148233884 -5.6443660962563234e-05 -0.00062453256445952569 0.0001817253701226057 -9.1791058254206678e-05 -0.00063901645424298682 0.00021214760502054981 -0.000107157592568357 -0.00051607974215886021 0.000243175735430259 -0.00012283016995276225 -0.00073747469565886223 0.00016130915829730023 -8.147865284971348e-05 -0.00075751170322251396 0.00027916255195424068 -0.00014100742263744871 -0.00069628128658078242 0.0001817253701226057 -9.1791058254206678e-05 -0.00063901645424298682 0.00016130915829730023 -8.147865284971348e-05 -0.00075751170322251396 0.00027916255195424068 -0.00014100742263744871 -0.00069628128658078242 0.00011174558148233884 -5.6443660962563234e-05 -0.00062453256445952569 0.0001817253701226057 -9.1791058254206678e-05 -0.00063901645424298682 0.00027916255195424068 -0.00014100742263744871 -0.00069628128658078242 0.00036402246144110069 -0.00018387089783575682 -0.00069112630289288376 0.00039231987933493025 -0.00019816416867946988 -0.00057221971119843966 0.00044064741057282857 -0.00022257482324105826 -0.00075561755226851975 0.00027916255195424068 -0.00014100742263744871 -0.00069628128658078242 0.0001817253701226057 -9.1791058254206678e-05 -0.00063901645424298682 0.00036402246144110069 -0.00018387089783575682 -0.00069112630289288376 0.00039231987933493025 -0.00019816416867946988 -0.00057221971119843966 0.00030079954745918858 -0.00015193645645094492 -0.00077747825084330149 0.00027916255195424068 -0.00014100742263744871 -0.00069628128658078242 0.00036402246144110069 -0.00018387089783575682 -0.00069112630289288376 0.00044064741057282857 -0.00022257482324105826 -0.00075561755226851975 0.00030079954745918858 -0.00015193645645094492 -0.00077747825084330149 0.000243175735430259 -0.00012283016995276225 -0.00073747469565886223 0.00027916255195424068 -0.00014100742263744871 -0.00069628128658078242 0.00036402246144110069 -0.00018387089783575682 -0.00069112630289288376 0.000243175735430259 -0.00012283016995276225 -0.00073747469565886223 0.00027916255195424068 -0.00014100742263744871 -0.00069628128658078242 0.0001817253701226057 -9.1791058254206678e-05 -0.00063901645424298682 0.00036402246144110069 -0.00018387089783575682 -0.00069112630289288376 0.00027916255195424068 -0.00014100742263744871 -0.00069628128658078242 0.00039231987933493025 -0.00019816416867946988 -0.00057221971119843966 0.00046906188607064654 -0.00023692722089430535 -0.00065994033934869956 0.00035203557428142309 -0.00017781621732077397 -0.00059841484929353233 0.00027916255195424068 -0.00014100742263744871 -0.00069628128658078242 0.00011174558148233884 -5.6443660962563234e-05 -0.00062453256445952569 0.00021214760502054981 -0.000107157592568357 -0.00051607974215886021 0.00017639529632384879 -8.9098791818158072e-05 -0.00061812775388036558 0.00016130915829730023 -8.147865284971348e-05 -0.00075751170322251396 0.00027916255195424068 -0.00014100742263744871 -0.00069628128658078242 0.00012337340131508509 -6.2316973461072972e-05 -0.00068705601445997945 0.00011174558148233884 -5.6443660962563234e-05 -0.00062453256445952569 0.00027916255195424068 -0.00014100742263744871 -0.00069628128658078242 0.00012337340131508509 -6.2316973461072972e-05 -0.00068705601445997945 0.00011174558148233884 -5.6443660962563234e-05 -0.00062453256445952569 0.00017639529632384879 -8.9098791818158072e-05 -0.00061812775388036558 0.00012337340131508509 -6.2316973461072972e-05 -0.00068705601445997945 0.00011174558148233884 -5.6443660962563234e-05 -0.00062453256445952569 1.6391623975251818e-17 -2.0289729613098293e-17 -0.00062924276705337071 0.00017639529632384879 -8.9098791818158072e-05 -0.00061812775388036558 0.00012337340131508509 -6.2316973461072972e-05 -0.00068705601445997945 1.9796313204270559e-17 -2.0907759087807324e-17 -0.0007341165615628593 0.00011174558148233884 -5.6443660962563234e-05 -0.00062453256445952569 1.6391623975251818e-17 -2.0289729613098293e-17 -0.00062924276705337071 0.00016130915829730023 -8.147865284971348e-05 -0.00075751170322251396 0.00012337340131508509 -6.2316973461072972e-05 -0.00068705601445997945 1.9796313204270559e-17 -2.0907759087807324e-17 -0.0007341165615628593 0.00011174558148233884 -5.6443660962563234e-05 -0.00062453256445952569 9.8674063208640305e-05 -4.9841123878594888e-05 -0.00073380349763019898 1.9796313204270559e-17 -2.0907759087807324e-17 -0.0007341165615628593 0.00011174558148233884 -5.6443660962563234e-05 -0.00062453256445952569 2.1271726945980021e-17 -1.7663487466437686e-17 -0.00067603305037282921 9.8674063208640305e-05 -4.9841123878594888e-05 -0.00073380349763019898 0.00016130915829730023 -8.147865284971348e-05 -0.00075751170322251396 1.9796313204270559e-17 -2.0907759087807324e-17 -0.0007341165615628593 0.00011174558148233884 -5.6443660962563234e-05 -0.00062453256445952569 9.8674063208640305e-05 -4.9841123878594888e-05 -0.00073380349763019898 0.00016130915829730023 -8.147865284971348e-05 -0.00075751170322251396 0.00011174558148233884 -5.6443660962563234e-05 -0.00062453256445952569 0.0001817253701226057 -9.1791058254206678e-05 -0.00063901645424298682 1.9796313204270559e-17 -2.0907759087807324e-17 -0.0007341165615628593 1.7722521456049276e-17 -1.9521156331205264e-17 -0.00062473918093335936 0.00011174558148233884 -5.6443660962563234e-05 -0.00062453256445952569 2.1271726945980021e-17 -1.7663487466437686e-17 -0.00067603305037282921 1.7722521456049276e-17 -1.9521156331205264e-17 -0.00062473918093335936 0.00011174558148233884 -5.6443660962563234e-05 -0.00062453256445952569 1.4832957837423789e-17 -1.7329108982624779e-17 -0.00052902966173436336 1.6391623975251818e-17 -2.0289729613098293e-17 -0.00062924276705337071 1.9796313204270559e-17 -2.0907759087807324e-17 -0.0007341165615628593 1.7722521456049276e-17 -1.9521156331205264e-17 -0.00062473918093335936 0.00011174558148233884 -5.6443660962563234e-05 -0.00062453256445952569 1.6391623975251818e-17 -2.0289729613098293e-17 -0.00062924276705337071 0.00011174558148233884 -5.6443660962563234e-05 -0.00062453256445952569 0.00012127050214326697 -6.1254780877537918e-05 -0.00051038779963428224 0.00021214760502054981 -0.000107157592568357 -0.00051607974215886021 1.4832957837423789e-17 -1.7329108982624779e-17 -0.00052902966173436336 0.00011174558148233884 -5.6443660962563234e-05 -0.00062453256445952569 1.7837344252502416e-17 -1.4525579762046388e-17 -0.00055527386394337453 0.00012127050214326697 -6.1254780877537918e-05 -0.00051038779963428224 0.0001817253701226057 -9.1791058254206678e-05 -0.00063901645424298682 0.00011174558148233884 -5.6443660962563234e-05 -0.00062453256445952569 1.7837344252502416e-17 -1.4525579762046388e-17 -0.00055527386394337453 0.00012127050214326697 -6.1254780877537918e-05 -0.00051038779963428224 1.4832957837423789e-17 -1.7329108982624779e-17 -0.00052902966173436336 1.7722521456049276e-17 -1.9521156331205264e-17 -0.00062473918093335936 0.00011174558148233884 -5.6443660962563234e-05 -0.00062453256445952569 2.1271726945980021e-17 -1.7663487466437686e-17 -0.00067603305037282921 1.7837344252502416e-17 -1.4525579762046388e-17 -0.00055527386394337453 1.7722521456049276e-17 -1.9521156331205264e-17 -0.00062473918093335936 0.00011174558148233884 -5.6443660962563234e-05 -0.00062453256445952569 1.7837344252502416e-17 -1.4525579762046388e-17 -0.00055527386394337453 1.4832957837423789e-17 -1.7329108982624779e-17 -0.00052902966173436336 9.8674063208640305e-05 -4.9841123878594888e-05 -0.00073380349763019898 0.00011174558148233884 -5.6443660962563234e-05 -0.00062453256445952569 2.1271726945980021e-17 -1.7663487466437686e-17 -0.00067603305037282921 0.0001817253701226057 -9.1791058254206678e-05 -0.00063901645424298682 0.00011174558148233884 -5.6443660962563234e-05 -0.00062453256445952569 2.1271726945980021e-17 -1.7663487466437686e-17 -0.00067603305037282921 1.7837344252502416e-17 -1.4525579762046388e-17 -0.00055527386394337453 0.0001817253701226057 -9.1791058254206678e-05 -0.00063901645424298682 2.1271726945980021e-17 -1.7663487466437686e-17 -0.00067603305037282921 1.7837344252502416e-17 -1.4525579762046388e-17 -0.00055527386394337453 0.0001817253701226057 -9.1791058254206678e-05 -0.00063901645424298682 2.1599391350604899e-17 -1.4737295082345696e-17 -0.00062554179439238767 1.7837344252502416e-17 -1.4525579762046388e-17 -0.00055527386394337453 0.00013941112324939413 -7.0417765702364171e-05 -0.00058538034440151245 2.1599391350604899e-17 -1.4737295082345696e-17 -0.00062554179439238767 1.945675541467244e-17 -1.1398001642684077e-17 -0.00053304272902747962 1.7837344252502416e-17 -1.4525579762046388e-17 -0.00055527386394337453 0.00012127050214326697 -6.1254780877537918e-05 -0.00051038779963428224 0.0001817253701226057 -9.1791058254206678e-05 -0.00063901645424298682 0.00013941112324939413 -7.0417765702364171e-05 -0.00058538034440151245 1.7837344252502416e-17 -1.4525579762046388e-17 -0.00055527386394337453 0.0001817253701226057 -9.1791058254206678e-05 -0.00063901645424298682 0.00013941112324939413 -7.0417765702364171e-05 -0.00058538034440151245 2.1599391350604899e-17 -1.4737295082345696e-17 -0.00062554179439238767 1.7837344252502416e-17 -1.4525579762046388e-17 -0.00055527386394337453 0.00012127050214326697 -6.1254780877537918e-05 -0.00051038779963428224 0.00013941112324939413 -7.0417765702364171e-05 -0.00058538034440151245 1.945675541467244e-17 -1.1398001642684077e-17 -0.00053304272902747962 1.7837344252502416e-17 -1.4525579762046388e-17 -0.00055527386394337453 0.00012127050214326697 -6.1254780877537918e-05 -0.00051038779963428224 1.5800628089302741e-17 -1.1057457423276878e-17 -0.00042306717746532749 1.4101921550163497e-17 -1.3836630067828316e-17 -0.00042058157202806885 0.0003024987795257674 -0.00015279475328371352 -0.00051746366721745632 0.0001817253701226057 -9.1791058254206678e-05 -0.00063901645424298682 0.00039231987933493025 -0.00019816416867946988 -0.00057221971119843966 0.00021214760502054981 -0.000107157592568357 -0.00051607974215886021 0.00027916255195424068 -0.00014100742263744871 -0.00069628128658078242 0.0001817253701226057 -9.1791058254206678e-05 -0.00063901645424298682 0.00039231987933493025 -0.00019816416867946988 -0.00057221971119843966 0.00021214760502054981 -0.000107157592568357 -0.00051607974215886021 0.00012127050214326697 -6.1254780877537918e-05 -0.00051038779963428224 0.0003024987795257674 -0.00015279475328371352 -0.00051746366721745632 0.0001817253701226057 -9.1791058254206678e-05 -0.00063901645424298682 0.00021214760502054981 -0.000107157592568357 -0.00051607974215886021 0.00012127050214326697 -6.1254780877537918e-05 -0.00051038779963428224 0.0003024987795257674 -0.00015279475328371352 -0.00051746366721745632 0.00016720685830339855 -8.4457632198931708e-05 -0.00040689570862161776 0.00021214760502054981 -0.000107157592568357 -0.00051607974215886021 0.00011174558148233884 -5.6443660962563234e-05 -0.00062453256445952569 0.00012127050214326697 -6.1254780877537918e-05 -0.00051038779963428224 0.0001817253701226057 -9.1791058254206678e-05 -0.00063901645424298682 0.00021214760502054981 -0.000107157592568357 -0.00051607974215886021 0.0003024987795257674 -0.00015279475328371352 -0.00051746366721745632 0.0001817253701226057 -9.1791058254206678e-05 -0.00063901645424298682 0.00036402246144110069 -0.00018387089783575682 -0.00069112630289288376 0.00032986571442675044 -0.00016661802910942705 -0.00059836229673957699 0.0003024987795257674 -0.00015279475328371352 -0.00051746366721745632 0.0001817253701226057 -9.1791058254206678e-05 -0.00063901645424298682 0.00036402246144110069 -0.00018387089783575682 -0.00069112630289288376 0.00039231987933493025 -0.00019816416867946988 -0.00057221971119843966 0.0003024987795257674 -0.00015279475328371352 -0.00051746366721745632 0.0001817253701226057 -9.1791058254206678e-05 -0.00063901645424298682 0.00032986571442675044 -0.00016661802910942705 -0.00059836229673957699 0.00013941112324939413 -7.0417765702364171e-05 -0.00058538034440151245 0.00012127050214326697 -6.1254780877537918e-05 -0.00051038779963428224 0.0003024987795257674 -0.00015279475328371352 -0.00051746366721745632 0.0001817253701226057 -9.1791058254206678e-05 -0.00063901645424298682 0.00013941112324939413 -7.0417765702364171e-05 -0.00058538034440151245 0.0001817253701226057 -9.1791058254206678e-05 -0.00063901645424298682 0.00032986571442675044 -0.00016661802910942705 -0.00059836229673957699 0.00028253142480828559 -0.00014270906949163513 -0.00069798293343505385 0.00013941112324939413 -7.0417765702364171e-05 -0.00058538034440151245 0.00028253142480828559 -0.00014270906949163513 -0.00069798293343505385 0.00012177994569814072 -6.1512105229061904e-05 -0.0006870538996214538 0.00013941112324939413 -7.0417765702364171e-05 -0.00058538034440151245 0.00016505914538491131 -8.3372803803853976e-05 -0.00061641553283137693 0.00032986571442675044 -0.00016661802910942705 -0.00059836229673957699 0.00028253142480828559 -0.00014270906949163513 -0.00069798293343505385 0.00013941112324939413 -7.0417765702364171e-05 -0.00058538034440151245 0.00016505914538491131 -8.3372803803853976e-05 -0.00061641553283137693 0.0001817253701226057 -9.1791058254206678e-05 -0.00063901645424298682 0.00028253142480828559 -0.00014270906949163513 -0.00069798293343505385 0.00012177994569814072 -6.1512105229061904e-05 -0.0006870538996214538 0.00013941112324939413 -7.0417765702364171e-05 -0.00058538034440151245 9.8674063208640305e-05 -4.9841123878594888e-05 -0.00073380349763019898 0.000243175735430259 -0.00012283016995276225 -0.00073747469565886223 0.0001817253701226057 -9.1791058254206678e-05 -0.00063901645424298682 0.00016130915829745666 -8.1478652849786961e-05 -0.00075751170322258454 0.000243175735430259 -0.00012283016995276225 -0.00073747469565886223 0.0001817253701226057 -9.1791058254206678e-05 -0.00063901645424298682 0.00028253142480828559 -0.00014270906949163513 -0.00069798293343505385 0.00016130915829745666 -8.1478652849786961e-05 -0.00075751170322258454 0.0001817253701226057 -9.1791058254206678e-05 -0.00063901645424298682 0.00028253142480828559 -0.00014270906949163513 -0.00069798293343505385 0.00016130915829745666 -8.1478652849786961e-05 -0.00075751170322258454 0.00012177994569814072 -6.1512105229061904e-05 -0.0006870538996214538 0.000243175735430259 -0.00012283016995276225 -0.00073747469565886223 0.0001817253701226057 -9.1791058254206678e-05 -0.00063901645424298682 0.00036402246144110069 -0.00018387089783575682 -0.00069112630289288376 0.00028253142480828559 -0.00014270906949163513 -0.00069798293343505385 0.00030304639708637871 -0.00015307135965613954 -0.00077812026221744143 0.000243175735430259 -0.00012283016995276225 -0.00073747469565886223 0.00036402246144110069 -0.00018387089783575682 -0.00069112630289288376 0.00028253142480828559 -0.00014270906949163513 -0.00069798293343505385 0.00030304639708637871 -0.00015307135965613954 -0.00077812026221744143 0.00036402246144110069 -0.00018387089783575682 -0.00069112630289288376 0.00028253142480828559 -0.00014270906949163513 -0.00069798293343505385 0.00044851278585457827 -0.00022654769241276654 -0.00075712596228487731 0.0001817253701226057 -9.1791058254206678e-05 -0.00063901645424298682 0.00036402246144110069 -0.00018387089783575682 -0.00069112630289288376 0.00032986571442675044 -0.00016661802910942705 -0.00059836229673957699 0.00028253142480828559 -0.00014270906949163513 -0.00069798293343505385 0.00036402246144110069 -0.00018387089783575682 -0.00069112630289288376 0.00032986571442