<?xml version="1.0"?>
<VTKFile type="UnstructuredGrid" version="0.1" byte_order="LittleEndian">
<UnstructuredGrid>
<Piece NumberOfPoints="21736" NumberOfCells="5434">
<Points>
<DataArray type="Float64" NumberOfComponents="3" format="ascii">
0 0 0 0.06323106138816019 0.062142082272951933 0.059406074834875783 0 0.12500000000052011 0 0.097115124458785826 0.097115124458952332 0 0 0 0 0.06323106138816019 0.062142082272951933 0.059406074834875783 0.097115124458785826 0.097115124458952332 0 0.12499999999977381 0 0 0 0 0 0.06323106138816019 0.062142082272951933 0.059406074834875783 0 0 0.12499999999977381 0.097115124458877891 0 0.097115124458877891 0 0 0 0.06323106138816019 0.062142082272951933 0.059406074834875783 0.097115124458877891 0 0.097115124458877891 0.12499999999977381 0 0 0 0 0 0.06323106138816019 0.062142082272951933 0.059406074834875783 0 0.097115124458952332 0.097115124458785826 0 0.12500000000052011 0 0 0 0 0.06323106138816019 0.062142082272951933 0.059406074834875783 0 0 0.12499999999977381 0 0.097115124458952332 0.097115124458785826 0 0 0.12499999999977381 0.072551601355543657 0 0.18244710269698541 0.061562519669449138 0.059434890704512577 0.14640236215318811 0.097115124458877891 0 0.097115124458877891 0 0 0.12499999999977381 0.072551601355543657 0 0.18244710269698541 0.061562519669449138 0.059434890704512577 0.14640236215318811 0 0 0.24999999999941239 0 0 0.12499999999977381 0 0.073316820370859764 0.18109440156403181 0.061562519669449138 0.059434890704512577 0.14640236215318811 0 0 0.24999999999941239 0.072551601355543657 0 0.18244710269698541 0.061562519669449138 0.059434890704512577 0.14640236215318811 0.08935723244776661 0.086883235764133676 0.21915734371072179 0 0 0.24999999999941239 0 0.073316820370859764 0.18109440156403181 0.061562519669449138 0.059434890704512577 0.14640236215318811 0.08935723244776661 0.086883235764133676 0.21915734371072179 0 0 0.24999999999941239 0.06323106138816019 0.062142082272951933 0.059406074834875783 0 0 0.12499999999977381 0.061562519669449138 0.059434890704512577 0.14640236215318811 0.097115124458877891 0 0.097115124458877891 0.06323106138816019 0.062142082272951933 0.059406074834875783 0.061562519669449138 0.059434890704512577 0.14640236215318811 0 0.097115124458952332 0.097115124458785826 0.1289262165046228 0.1094244395929215 0.109406571350707 0.06323106138816019 0.062142082272951933 0.059406074834875783 0 0 0.12499999999977381 0.061562519669449138 0.059434890704512577 0.14640236215318811 0 0.097115124458952332 0.097115124458785826 0 0 0.12499999999977381 0 0.073316820370859764 0.18109440156403181 0.061562519669449138 0.059434890704512577 0.14640236215318811 0 0.097115124458952332 0.097115124458785826 0 0.073316820370859764 0.18109440156403181 0.061562519669449138 0.059434890704512577 0.14640236215318811 0 0.097115124458952332 0.097115124458785826 0 0.17009619771987891 0.16806798983665569 0 0.17009619771987891 0.16806798983665569 0.07291569808422331 0.1826984339026739 0.06727569697794418 0.1289262165046228 0.1094244395929215 0.109406571350707 0.1307313911228048 0.2541486156333484 0.12772207903554619 0.061562519669449138 0.059434890704512577 0.14640236215318811 0 0.097115124458952332 0.097115124458785826 0 0.17009619771987891 0.16806798983665569 0.1289262165046228 0.1094244395929215 0.109406571350707 0 0.097115124458952332 0.097115124458785826 0 0.17009619771987891 0.16806798983665569 0.07291569808422331 0.1826984339026739 0.06727569697794418 0.1289262165046228 0.1094244395929215 0.109406571350707 0 0.17009619771987891 0.16806798983665569 0.08935723244776661 0.086883235764133676 0.21915734371072179 0.098222284833748397 0.2197439980240854 0.23619361920574031 0 0.099372779675467607 0.26528889352553142 0 0.17009619771987891 0.16806798983665569 0.1289262165046228 0.1094244395929215 0.109406571350707 0.08935723244776661 0.086883235764133676 0.21915734371072179 0.098222284833748397 0.2197439980240854 0.23619361920574031 0 0.073316820370859764 0.18109440156403181 0 0.17009619771987891 0.16806798983665569 0.08935723244776661 0.086883235764133676 0.21915734371072179 0 0.099372779675467607 0.26528889352553142 0 0.073316820370859764 0.18109440156403181 0.061562519669449138 0.059434890704512577 0.14640236215318811 0 0.17009619771987891 0.16806798983665569 0.08935723244776661 0.086883235764133676 0.21915734371072179 0.061562519669449138 0.059434890704512577 0.14640236215318811 0 0.17009619771987891 0.16806798983665569 0.1289262165046228 0.1094244395929215 0.109406571350707 0.08935723244776661 0.086883235764133676 0.21915734371072179 0 0.17009619771987891 0.16806798983665569 0.098222284833748397 0.2197439980240854 0.23619361920574031 0 0.2134112930234815 0.28239564278595841 0 0.28674406688656878 0.2119407166408592 0 0.17009619771987891 0.16806798983665569 0.07291569808422331 0.1826984339026739 0.06727569697794418 0.1307313911228048 0.2541486156333484 0.12772207903554619 0 0.26324808216617729 0.1061976352567853 0 0.097115124458952332 0.097115124458785826 0 0.17009619771987891 0.16806798983665569 0 0.1810918808693138 0.074276149910445372 0.07291569808422331 0.1826984339026739 0.06727569697794418 0 0.17009619771987891 0.16806798983665569 0 0.1810918808693138 0.074276149910445372 0.07291569808422331 0.1826984339026739 0.06727569697794418 0 0.26324808216617729 0.1061976352567853 0 0.1810918808693138 0.074276149910445372 0.07291569808422331 0.1826984339026739 0.06727569697794418 0 0.25000000000104039 0 0 0.26324808216617729 0.1061976352567853 0 0.1810918808693138 0.074276149910445372 0 0.12500000000052011 0 0.07291569808422331 0.1826984339026739 0.06727569697794418 0 0.25000000000104039 0 0 0.097115124458952332 0.097115124458785826 0 0.1810918808693138 0.074276149910445372 0 0.12500000000052011 0 0.07291569808422331 0.1826984339026739 0.06727569697794418 0.06323106138816019 0.062142082272951933 0.059406074834875783 0 0.12500000000052011 0 0.07291569808422331 0.1826984339026739 0.06727569697794418 0.097115124458785826 0.097115124458952332 0 0.06323106138816019 0.062142082272951933 0.059406074834875783 0 0.097115124458952332 0.097115124458785826 0 0.12500000000052011 0 0.07291569808422331 0.1826984339026739 0.06727569697794418 0.06323106138816019 0.062142082272951933 0.059406074834875783 0 0.097115124458952332 0.097115124458785826 0.07291569808422331 0.1826984339026739 0.06727569697794418 0.1289262165046228 0.1094244395929215 0.109406571350707 0 0.12500000000052011 0 0.074276107326000582 0.18109175666468211 0 0.07291569808422331 0.1826984339026739 0.06727569697794418 0.097115124458785826 0.097115124458952332 0 0.074276107326000582 0.18109175666468211 0 0.07291569808422331 0.1826984339026739 0.06727569697794418 0.10619742233455839 0.26324746114302949 0 0 0.25000000000104039 0 0 0.12500000000052011 0 0.074276107326000582 0.18109175666468211 0 0.07291569808422331 0.1826984339026739 0.06727569697794418 0 0.25000000000104039 0 0.07291569808422331 0.1826984339026739 0.06727569697794418 0.20025673477961189 0.19140754843858721 0.073010113208307331 0.1307313911228048 0.2541486156333484 0.12772207903554619 0.10619742233455839 0.26324746114302949 0 0.07291569808422331 0.1826984339026739 0.06727569697794418 0.1680679898366586 0.17009619771986781 0 0.20025673477961189 0.19140754843858721 0.073010113208307331 0.1289262165046228 0.1094244395929215 0.109406571350707 0.07291569808422331 0.1826984339026739 0.06727569697794418 0.1680679898366586 0.17009619771986781 0 0.20025673477961189 0.19140754843858721 0.073010113208307331 0.10619742233455839 0.26324746114302949 0 0.074276107326000582 0.18109175666468211 0 0.07291569808422331 0.1826984339026739 0.06727569697794418 0.097115124458785826 0.097115124458952332 0 0.1680679898366586 0.17009619771986781 0 0.074276107326000582 0.18109175666468211 0 0.07291569808422331 0.1826984339026739 0.06727569697794418 0.1680679898366586 0.17009619771986781 0 0.10619742233455839 0.26324746114302949 0 0.06323106138816019 0.062142082272951933 0.059406074834875783 0.07291569808422331 0.1826984339026739 0.06727569697794418 0.097115124458785826 0.097115124458952332 0 0.1289262165046228 0.1094244395929215 0.109406571350707 0.07291569808422331 0.1826984339026739 0.06727569697794418 0.097115124458785826 0.097115124458952332 0 0.1680679898366586 0.17009619771986781 0 0.1289262165046228 0.1094244395929215 0.109406571350707 0.097115124458785826 0.097115124458952332 0 0.1680679898366586 0.17009619771986781 0 0.1289262165046228 0.1094244395929215 0.109406571350707 0.18109440156403669 0.073316820370859112 0 0.1680679898366586 0.17009619771986781 0 0.22141769647606749 0.080862311673354156 0.083931555580687142 0.18109440156403669 0.073316820370859112 0 0.26528889352555279 0.099372779675475503 0 0.1680679898366586 0.17009619771986781 0 0.20025673477961189 0.19140754843858721 0.073010113208307331 0.1289262165046228 0.1094244395929215 0.109406571350707 0.22141769647606749 0.080862311673354156 0.083931555580687142 0.1680679898366586 0.17009619771986781 0 0.1289262165046228 0.1094244395929215 0.109406571350707 0.22141769647606749 0.080862311673354156 0.083931555580687142 0.18109440156403669 0.073316820370859112 0 0.1680679898366586 0.17009619771986781 0 0.20025673477961189 0.19140754843858721 0.073010113208307331 0.22141769647606749 0.080862311673354156 0.083931555580687142 0.26528889352555279 0.099372779675475503 0 0.1680679898366586 0.17009619771986781 0 0.20025673477961189 0.19140754843858721 0.073010113208307331 0.28238962436783799 0.21335287803006631 0 0.21199123149808141 0.28671388592782698 0 0.20670689941440221 0.17652359486693919 0.1821174131237745 0.1289262165046228 0.1094244395929215 0.109406571350707 0.098222284833748397 0.2197439980240854 0.23619361920574031 0.1307313911228048 0.2541486156333484 0.12772207903554619 0 0.17009619771987891 0.16806798983665569 0.1289262165046228 0.1094244395929215 0.109406571350707 0.098222284833748397 0.2197439980240854 0.23619361920574031 0.1307313911228048 0.2541486156333484 0.12772207903554619 0.20025673477961189 0.19140754843858721 0.07301011320
[...]
<PointData Scalars="" Vectors="displacement," Tensors="">
<DataArray type="Float64" Name="displacement" NumberOfComponents="3" format="ascii">
-0.00060969588623663751 -0.00059729604398620821 -0.00095343025335802749 -0.00056098324483041411 -0.00054875247147650162 -0.00089075475695376606 -0.00045289338486577283 -0.00059737580719694094 -0.00089030163304176693 -0.00048753223752837549 -0.00047669482081887538 -0.00085623277456977882 -0.00060969588623663751 -0.00059729604398620821 -0.00095343025335802749 -0.00056098324483041411 -0.00054875247147650162 -0.00089075475695376606 -0.00048753223752837549 -0.00047669482081887538 -0.00085623277456977882 -0.00060980859342481871 -0.00044249111537849895 -0.0008911745650524328 -0.00060969588623663751 -0.00059729604398620821 -0.00095343025335802749 -0.00056098324483041411 -0.00054875247147650162 -0.00089075475695376606 -0.00067191810661543726 -0.00066036546199189613 -0.00095327765025263569 -0.00065829048932172774 -0.0005258386649596179 -0.00090509811147970829 -0.00060969588623663751 -0.00059729604398620821 -0.00095343025335802749 -0.00056098324483041411 -0.00054875247147650162 -0.00089075475695376606 -0.00065829048932172774 -0.0005258386649596179 -0.00090509811147970829 -0.00060980859342481871 -0.00044249111537849895 -0.0008911745650524328 -0.00060969588623663751 -0.00059729604398620821 -0.00095343025335802749 -0.00056098324483041411 -0.00054875247147650162 -0.00089075475695376606 -0.00053584537903731072 -0.00064652511648272625 -0.00090438516406649548 -0.00045289338486577283 -0.00059737580719694094 -0.00089030163304176693 -0.00060969588623663751 -0.00059729604398620821 -0.00095343025335802749 -0.00056098324483041411 -0.00054875247147650162 -0.00089075475695376606 -0.00067191810661543726 -0.00066036546199189613 -0.00095327765025263569 -0.00053584537903731072 -0.00064652511648272625 -0.00090438516406649548 -0.00067191810661543726 -0.00066036546199189613 -0.00095327765025263569 -0.00070076808829486312 -0.00059930190433261238 -0.00091703233354088222 -0.00060773014403465043 -0.00059474015788007106 -0.00089282839700812865 -0.00065829048932172774 -0.0005258386649596179 -0.00090509811147970829 -0.00067191810661543726 -0.00066036546199189613 -0.00095327765025263569 -0.00070076808829486312 -0.00059930190433261238 -0.00091703233354088222 -0.00060773014403465043 -0.00059474015788007106 -0.00089282839700812865 -0.00073423123886877601 -0.00072343799305624342 -0.00095257175178542128 -0.00067191810661543726 -0.00066036546199189613 -0.00095327765025263569 -0.0006076243712345305 -0.0006889461226348238 -0.00091614884950383575 -0.00060773014403465043 -0.00059474015788007106 -0.00089282839700812865 -0.00073423123886877601 -0.00072343799305624342 -0.00095257175178542128 -0.00070076808829486312 -0.00059930190433261238 -0.00091703233354088222 -0.00060773014403465043 -0.00059474015788007106 -0.00089282839700812865 -0.00060945396000079244 -0.00059688810750554652 -0.00086508442120116782 -0.00073423123886877601 -0.00072343799305624342 -0.00095257175178542128 -0.0006076243712345305 -0.0006889461226348238 -0.00091614884950383575 -0.00060773014403465043 -0.00059474015788007106 -0.00089282839700812865 -0.00060945396000079244 -0.00059688810750554652 -0.00086508442120116782 -0.00073423123886877601 -0.00072343799305624342 -0.00095257175178542128 -0.00056098324483041411 -0.00054875247147650162 -0.00089075475695376606 -0.00067191810661543726 -0.00066036546199189613 -0.00095327765025263569 -0.00060773014403465043 -0.00059474015788007106 -0.00089282839700812865 -0.00065829048932172774 -0.0005258386649596179 -0.00090509811147970829 -0.00056098324483041411 -0.00054875247147650162 -0.00089075475695376606 -0.00060773014403465043 -0.00059474015788007106 -0.00089282839700812865 -0.00053584537903731072 -0.00064652511648272625 -0.00090438516406649548 -0.00052621789954832997 -0.00049242173137973091 -0.00083475521729004854 -0.00056098324483041411 -0.00054875247147650162 -0.00089075475695376606 -0.00067191810661543726 -0.00066036546199189613 -0.00095327765025263569 -0.00060773014403465043 -0.00059474015788007106 -0.00089282839700812865 -0.00053584537903731072 -0.00064652511648272625 -0.00090438516406649548 -0.00067191810661543726 -0.00066036546199189613 -0.00095327765025263569 -0.0006076243712345305 -0.0006889461226348238 -0.00091614884950383575 -0.00060773014403465043 -0.00059474015788007106 -0.00089282839700812865 -0.00053584537903731072 -0.00064652511648272625 -0.00090438516406649548 -0.0006076243712345305 -0.0006889461226348238 -0.00091614884950383575 -0.00060773014403465043 -0.00059474015788007106 -0.00089282839700812865 -0.00053584537903731072 -0.00064652511648272625 -0.00090438516406649548 -0.00047986483835853926 -0.00068276057951100139 -0.00086748414513968225 -0.00047986483835853926 -0.00068276057951100139 -0.00086748414513968225 -0.00041439837234277219 -0.00053992089603581417 -0.00082541235539390178 -0.00052621789954832997 -0.00049242173137973091 -0.00083475521729004854 -0.00035625216886724716 -0.00049770941066709336 -0.00076170088141486549 -0.00060773014403465043 -0.00059474015788007106 -0.00089282839700812865 -0.00053584537903731072 -0.00064652511648272625 -0.00090438516406649548 -0.00047986483835853926 -0.00068276057951100139 -0.00086748414513968225 -0.00052621789954832997 -0.00049242173137973091 -0.00083475521729004854 -0.00053584537903731072 -0.00064652511648272625 -0.00090438516406649548 -0.00047986483835853926 -0.00068276057951100139 -0.00086748414513968225 -0.00041439837234277219 -0.00053992089603581417 -0.00082541235539390178 -0.00052621789954832997 -0.00049242173137973091 -0.00083475521729004854 -0.00047986483835853926 -0.00068276057951100139 -0.00086748414513968225 -0.00060945396000079244 -0.00059688810750554652 -0.00086508442120116782 -0.000451826094591272 -0.0005941450559433266 -0.00079467361540880722 -0.00061668005736837631 -0.00073154131580368978 -0.00090252689219637978 -0.00047986483835853926 -0.00068276057951100139 -0.00086748414513968225 -0.00052621789954832997 -0.00049242173137973091 -0.00083475521729004854 -0.00060945396000079244 -0.00059688810750554652 -0.00086508442120116782 -0.000451826094591272 -0.0005941450559433266 -0.00079467361540880722 -0.0006076243712345305 -0.0006889461226348238 -0.00091614884950383575 -0.00047986483835853926 -0.00068276057951100139 -0.00086748414513968225 -0.00060945396000079244 -0.00059688810750554652 -0.00086508442120116782 -0.00061668005736837631 -0.00073154131580368978 -0.00090252689219637978 -0.0006076243712345305 -0.0006889461226348238 -0.00091614884950383575 -0.00060773014403465043 -0.00059474015788007106 -0.00089282839700812865 -0.00047986483835853926 -0.00068276057951100139 -0.00086748414513968225 -0.00060945396000079244 -0.00059688810750554652 -0.00086508442120116782 -0.00060773014403465043 -0.00059474015788007106 -0.00089282839700812865 -0.00047986483835853926 -0.00068276057951100139 -0.00086748414513968225 -0.00052621789954832997 -0.00049242173137973091 -0.00083475521729004854 -0.00060945396000079244 -0.00059688810750554652 -0.00086508442120116782 -0.00047986483835853926 -0.00068276057951100139 -0.00086748414513968225 -0.000451826094591272 -0.0005941450559433266 -0.00079467361540880722 -0.00048248283841517421 -0.0007406067262083685 -0.00084527737811462074 -0.0003575072892502034 -0.00070494217801490258 -0.00080787464112152315 -0.00047986483835853926 -0.00068276057951100139 -0.00086748414513968225 -0.00041439837234277219 -0.00053992089603581417 -0.00082541235539390178 -0.00035625216886724716 -0.00049770941066709336 -0.00076170088141486549 -0.0003347819251218998 -0.00065109736865774084 -0.00081970182490385317 -0.00053584537903731072 -0.00064652511648272625 -0.00090438516406649548 -0.00047986483835853926 -0.00068276057951100139 -0.00086748414513968225 -0.00042001537127889411 -0.00063523599390546298 -0.00086177996799829113 -0.00041439837234277219 -0.00053992089603581417 -0.00082541235539390178 -0.00047986483835853926 -0.00068276057951100139 -0.00086748414513968225 -0.00042001537127889411 -0.00063523599390546298 -0.00086177996799829113 -0.00041439837234277219 -0.00053992089603581417 -0.00082541235539390178 -0.0003347819251218998 -0.00065109736865774084 -0.00081970182490385317 -0.00042001537127889411 -0.00063523599390546298 -0.00086177996799829113 -0.00041439837234277219 -0.00053992089603581417 -0.00082541235539390178 -0.00029979500102980227 -0.00059623050609587712 -0.00082559699020250165 -0.0003347819251218998 -0.00065109736865774084 -0.00081970182490385317 -0.00042001537127889411 -0.00063523599390546298 -0.00086177996799829113 -0.00045289338486577283 -0.00059737580719694094 -0.00089030163304176693 -0.00041439837234277219 -0.00053992089603581417 -0.00082541235539390178 -0.00029979500102980227 -0.00059623050609587712 -0.00082559699020250165 -0.00053584537903731072 -0.00064652511648272625 -0.00090438516406649548 -0.00042001537127889411 -0.00063523599390546298 -0.00086177996799829113 -0.00045289338486577283 -0.00059737580719694094 -0.00089030163304176693 -0.00041439837234277219 -0.00053992089603581417 -0.00082541235539390178 -0.00056098324483041411 -0.00054875247147650162 -0.00089075475695376606 -0.00045289338486577283 -0.00059737580719694094 -0.00089030163304176693 -0.00041439837234277219 -0.00053992089603581417 -0.00082541235539390178 -0.00048753223752837549 -0.00047669482081887538 -0.00085623277456977882 -0.00056098324483041411 -0.00054875247147650162 -0.00089075475695376606 -0.00053584537903731072 -0.00064652511648272625 -0.00090438516406649548 -0.00045289338486577283 -0.00059737580719694094 -0.00089030163304176693 -0.00041439837234277219 -0.00053992089603581417 -0.00082541235539390178 -0.00056098324483041411 -0.00054875247147650162 -0.00089075475695376606 -0.00053584537903731072 -0.00064652511648272625 -0.00090438516406649548 -0.00041439837234277219 -0.00053992089603581417 -0.00082541235539390178 -0.00052621789954832997 -0.00049242173137973091 -0.00083475521729004854 -0.00045289338486577283 -0.00059737580719694094 -0.00089030163304176693 -0.0003834895267829386 -0.00050395648677173106 -0.00082505569079906757 -0.00041439837234277219 -0.00053992089603581417 -0.00082541235539390178 -0.00048753223752837549 -0.00047669482081887538 -0.00085623277456977882 -0.0003834895267829386 -0.00050395648677173106 -0.00082505569079906757 -0.00041439837234277219 -0.00053992089603581417 -0.00082541235539390178 -0.00028370063828815482 -0.0004625288559046832 -0.00076751838536058417 -0.00029979500102980227 -0.00059623050609587712 -0.00082559699020250165 -0.00045289338486577283 -0.00059737580719694094 -0.00089030163304176693 -0.0003834895267829386 -0.00050395648677173106 -0.00082505569079906757 -0.00041439837234277219 -0.00053992089603581417 -0.00082541235539390178 -0.00029979500102980227 -0.00059623050609587712 -0.00082559699020250165 -0.00041439837234277219 -0.00053992089603581417 -0.00082541235539390178 -0.00040559257186725638 -0.00038617446179450669 -0.00075907963680696671 -0.00035625216886724716 -0.00049770941066709336 -0.00076170088141486549 -0.00028370063828815482 -0.0004625288559046832 -0.00076751838536058417 -0.00041439837234277219 -0.00053992089603581417 -0.00082541235539390178 -0.00039602028637702883 -0.00038896918634409946 -0.00078475245061761874 -0.00040559257186725638 -0.00038617446179450669 -0.00075907963680696671 -0.00052621789954832997 -0.00049242173137973091 -0.00083475521729004854 -0.00041439837234277219 -0.00053992089603581417 -0.00082541235539390178 -0.00039602028637702883 -0.00038896918634409946 -0.00078475245061761874 -0.00040559257186725638 -0.00038617446179450669 -0.00075907963680696671 -0.00028370063828815482 -0.0004625288559046832 -0.00076751838536058417 -0.0003834895267829386 -0.00050395648677173106 -0.00082505569079906757 -0.00041439837234277219 -0.00053992089603581417 -0.00082541235539390178 -0.00048753223752837549 -0.00047669482081887538 -0.00085623277456977882 -0.00039602028637702883 -0.00038896918634409946 -0.00078475245061761874 -0.0003834895267829386 -0.00050395648677173106 -0.00082505569079906757 -0.00041439837234277219 -0.00053992089603581417 -0.00082541235539390178 -0.00039602028637702883 -0.00038896918634409946 -0.00078475245061761874 -0.00028370063828815482 -0.0004625288559046832 -0.00076751838536058417 -0.00056098324483041411 -0.00054875247147650162 -0.00089075475695376606 -0.00041439837234277219 -0.00053992089603581417 -0.00082541235539390178 -0.00048753223752837549 -0.00047669482081887538 -0.00085623277456977882 -0.00052621789954832997 -0.00049242173137973091 -0.00083475521729004854 -0.00041439837234277219 -0.00053992089603581417 -0.00082541235539390178 -0.00048753223752837549 -0.00047669482081887538 -0.00085623277456977882 -0.00039602028637702883 -0.00038896918634409946 -0.00078475245061761874 -0.00052621789954832997 -0.00049242173137973091 -0.00083475521729004854 -0.00048753223752837549 -0.00047669482081887538 -0.00085623277456977882 -0.00039602028637702883 -0.00038896918634409946 -0.00078475245061761874 -0.00052621789954832997 -0.00049242173137973091 -0.00083475521729004854 -0.00051651650380695868 -0.00037396835693957606 -0.00082630464577109657 -0.00039602028637702883 -0.00038896918634409946 -0.00078475245061761874 -0.00054841178370010129 -0.00036683583364422633 -0.00080303869568341263 -0.00051651650380695868 -0.00037396835693957606 -0.00082630464577109657 -0.00048151570029081829 -0.00027308460312535396 -0.00077114218634509869 -0.00039602028637702883 -0.00038896918634409946 -0.00078475245061761874 -0.00040559257186725638 -0.00038617446179450669 -0.00075907963680696671 -0.00052621789954832997 -0.00049242173137973091 -0.00083475521729004854 -0.00054841178370010129 -0.00036683583364422633 -0.00080303869568341263 -0.00039602028637702883 -0.00038896918634409946 -0.00078475245061761874 -0.00052621789954832997 -0.00049242173137973091 -0.00083475521729004854 -0.00054841178370010129 -0.00036683583364422633 -0.00080303869568341263 -0.00051651650380695868 -0.00037396835693957606 -0.00082630464577109657 -0.00039602028637702883 -0.00038896918634409946 -0.00078475245061761874 -0.00040559257186725638 -0.00038617446179450669 -0.00075907963680696671 -0.00054841178370010129 -0.00036683583364422633 -0.00080303869568341263 -0.00048151570029081829 -0.00027308460312535396 -0.00077114218634509869 -0.00039602028637702883 -0.00038896918634409946 -0.00078475245061761874 -0.00040559257186725638 -0.00038617446179450669 -0.00075907963680696671 -0.0003398956368811452 -0.00025172422835457233 -0.00070658821085427031 -0.00025454620038568577 -0.00033259927922437782 -0.00070515895824429283 -0.00047817551982209857 -0.00043330258020345737 -0.00076359272409117851 -0.00052621789954832997 -0.00049242173137973091 -0.00083475521729004854 -0.000451826094591272 -0.0005941450559433266 -0.00079467361540880722 -0.00035625216886724716 -0.00049770941066709336 -0.00076170088141486549 -0.00047986483835853926 -0.00068276057951100139 -0.00086748414513968225 -0.00052621789954832997 -0.00049242173137973091 -0.00083475521729004854 -0.000451826094591272 -0.0005941450559433266 -0.00079467361540880722 -0.00035625216886724716 -0.00049770941066709336 -0.00076170088141486549 -0.00040559257186725638 -0.00038617446179450669 -0.00075907963680696671 -0.00047817551982209857 -0.00043330258020345737 -0.00076359272409117851 -0.00052621789954832997 -0.00049242173137973091 -0.00083475521729004854 -0.00035625216886724716 -0.00049770941066709336 -0.00076170088141486549 -0.00040559257186725638 -0.00038617446179450669 -0.00075907963680696671 -0.00047817551982209857 -0.00043330258020345737 -0.00076359272409117851 -0.00035600360610190144 -0.0003116835441887167 -0.00069924923594144215 -0.00035625216886724716 -0.00049770941066709336 -0.00076170088141486549 -0.00041439837234277219 -0.00053992089603581417 -0.00082541235539390178 -0.00040559257186725638 -0.00038617446179450669 -0.00075907963680696671 -0.00052621789954832997 -0.00049242173137973091 -0.00083475521729004854 -0.00035625216886724716 -0.00049770941066709336 -0.00076170088141486549 -0.00047817551982209857 -0.00043330258020345737 -0.00076359272409117851 -0.00052621789954832997 -0.00049242173137973091 -0.00083475521729004854 -0.00060945396000079244 -0.00059688810750554652 -0.00086508442120116782 -0.00061347645523419339 -0.00043598592750547055 -0.00081083010942946355 -0.00047817551982209857 -0.00043330258020345737 -0.00076359272409117851 -0.00052621789954832997 -0.00049242173137973091 -0.00083475521729004854 -0.00060945396000079244 -0.00059688810750554652 -0.00086508442120116782 -0.000451826094591272 -0.0005941450559433266 -0.00079467361540880722 -0.00047817551982209857 -0.00043330258020345737 -0.00076359272409117851 -0.00052621789954832997 -0.00049242173137973091 -0.00083475521729004854 -0.00061347645523419339 -0.00043598592750547055 -0.00081083010942946355 -0.00054841178370010129 -0.00036683583364422633 -0.00080303869568341263 -0.00040559257186725638 -0.00038617446179450669 -0.00075907963680696671 -0.00047817551982209857 -0.00043330258020345737 -0.00076359272409117851 -0.00052621789954832997 -0.00049242173137973091 -0.00083475521729004854 -0.00054841178370010129 -0.00036683583364422633 -0.00080303869568341263 -0.00052621789954832997 -0.00049242173137973091 -0.00083475521729004854 -0.00061347645523419339 -0.00043598592750547055 -0.00081083010942946355 -0.00069502502966598825 -0.00047485145777935846 -0.00086978039421051819 -0.00054841178370010129 -0.00036683583364422633 -0.00080303869568341263 -0.00069502502966598825 -0.00047485145777935846 -0.00086978039421051819 -0.00064653018127742599 -0.00041060630526219041 -0.00086304377936349905 -0.00054841178370010129 -0.00036683583364422633 -0.00080303869568341263 -0.00065949532082673038 -0.0003214754060996958 -0.00082067003774424969 -0.00061347645523419339 -0.00043598592750547055 -0.00081083010942946355 -0.00069502502966598825 -0.00047485145777935846 -0.00086978039421051819 -0.00054841178370010129 -0.00036683583364422633 -0.00080303869568341263 -0.00065949532082673038 -0.0003214754060996958 -0.00082067003774424969 -0.00052621789954832997 -0.00049242173137973091 -0.00083475521729004854 -0.00069502502966598825 -0.00047485145777935846 -0.00086978039421051819 -0.00064653018127742599 -0.00041060630526219041 -0.00086304377936349905 -0.00054841178370010129 -0.00036683583364422633 -0.00080303869568341263 -0.00056098324483041411 -0.00054875247147650162 -0.00089075475695376606 -0.00060773014403465043 -0.00059474015788007106 -0.00089282839700812865 -0.00052621789954832997 -0.00049242173137973091 -0.00083475521729004854 -0.00065829048932172774 -0.0005258386649596179 -0.00090509811147970829 -0.00060773014403465043 -0.00059474015788007106 -0.00089282839700812865 -0.00052621789954832997 -0.00049242173137973091 -0.00083475521729004854 -0.00069502502966598825 -0.00047485145777935846 -0.00086978039421051819 -0.00065829048932172774 -0.0005258386649596179 -0.00090509811147970829 -0.00052621789954832997 -0.00049242173137973091 -0.00083475521729004854 -0.00069502502966598825 -0.00047485145777935846 -0.00086978039421051819 -0.00065829048932172774 -0.0005258386649596179 -0.00090509811147970829 -0.00064653018127742599 -0.00041060630526219041 -0.00086304377936349905 -0.00060773014403465043 -0.00059474015788007106 -0.00089282839700812865 -0.00052621789954832997 -0.00049242173137973091 -0.00083475521729004854 -0.00060945396000079244 -0.00059688810750554652 -0.00086508442120116782 -0.00069502502966598825 -0.00047485145777935846 -0.00086978039421051819 -0.00070076808829486312 -0.00059930190433261238 -0.00091703233354088222 -0.00060773014403465043 -0.00059474015788007106 -0.00089282839700812865 -0.00060945396000079244 -0.00059688810750554652 -0.00086508442120116782 -0.00069502502966598825 -0.00047485145777935846 -0.00086978039421051819 -0.00070076808829486312 -0.00059930190433261238 -0.00091703233354088222 -0.00060945396000079244 -0.00059688810750554652 -0.00086508442120116782 -0.00069502502966598825 -0.00047485145777935846 -0.00086978039421051819 -0.00074459188923123461 -0.00061230362605095101 -0.00090413238238706232 -0.00052621789954832997 -0.000492421731379