<?xml version="1.0"?>
<VTKFile type="UnstructuredGrid" version="0.1" byte_order="LittleEndian">
<UnstructuredGrid>
<Piece NumberOfPoints="23284" NumberOfCells="5821">
<Points>
<DataArray type="Float64" NumberOfComponents="3" format="ascii">
0.0038256098144006869 0.0041400759042262009 0.0039854622984236152 0.0050000000000000001 0.0050000000000000001 0 0.007850875913509971 0.005381679503114206 0.0037846524567980611 0.01459658547112015 0.02963818693411439 0.01348159639352434 0 0 0.0050000000000000001 0 0.0050000000000000001 0.0050000000000000001 0.0025000000000000001 0.0025000000000000001 0.067187500000176273 0 0 0.12937500000035251 0.0025000000000000001 0.0025000000000000001 0.035993247487525602 0.01335482532982827 0.061921935510367468 0.031596396334779613 0.053495808280144469 0.082973914578683722 0.047312437411078337 0 0.0736402080526046 0.073773792303481078 0.056489871231288402 0.0025000000000000001 0.0025000000000000001 0.045799116620837459 0.028040759187074001 0.036821396352863953 0.0025000000000000001 0.0025000000000000001 0.035993247487525602 0.0025000000000000001 0.0025000000000000001 0.067187500000176273 0 0.0050000000000000001 0.0050000000000000001 0.0095042730786282278 0.0082759167994670979 0.0082480707199308924 0.0045817963841059857 0.0043364158334714669 0.009473343555270677 0.01335482532982827 0.061921935510367468 0.031596396334779613 0.045799116620837459 0.028040759187074001 0.036821396352863953 0.0025000000000000001 0.0025000000000000001 0.035993247487525602 0.053495808280144469 0.082973914578683722 0.047312437411078337 0.0025000000000000001 0.0025000000000000001 0.067187500000176273 0.056489871231288402 0.0025000000000000001 0.0025000000000000001 0.045799116620837459 0.028040759187074001 0.036821396352863953 0.073626545880309466 0 0.073777028331958816 0.0025000000000000001 0.0025000000000000001 0.067187500000176273 0.045799116620837459 0.028040759187074001 0.036821396352863953 0.053495808280144469 0.082973914578683722 0.047312437411078337 0.073626545880309466 0 0.073777028331958816 0.0025000000000000001 0.0025000000000000001 0.067187500000176273 0.056489871231288402 0.0025000000000000001 0.0025000000000000001 0.045799116620837459 0.028040759187074001 0.036821396352863953 0.073580292400886219 0.073580292401008413 0 0.073626545880309466 0 0.073777028331958816 0.045799116620837459 0.028040759187074001 0.036821396352863953 0.053495808280144469 0.082973914578683722 0.047312437411078337 0.073580292400886219 0.073580292401008413 0 0.073626545880309466 0 0.073777028331958816 0 0 0 0 0.0025000000000000001 0.0025000000000000001 0.0025000000000000001 0.0025000000000000001 0 0.0025000000000000001 0 0.0025000000000000001 0 0 0.0050000000000000001 0 0.0050000000000000001 0.0050000000000000001 0.0025000000000000001 0.0025000000000000001 0.035993247487525602 0.0025000000000000001 0.0025000000000000001 0.067187500000176273 0.010477667344183201 0.01284643002126089 0.00012275481760709659 0.007850875913509971 0.005381679503114206 0.0037846524567980611 0.0095042730786282278 0.0082759167994670979 0.0082480707199308924 0.01459658547112015 0.02963818693411439 0.01348159639352434 0.0050000000000000001 0.0050000000000000001 0 0.010477667344183201 0.01284643002126089 0.00012275481760709659 0.007850875913509971 0.005381679503114206 0.0037846524567980611 0.01459658547112015 0.02963818693411439 0.01348159639352434 0.0038256098144006869 0.0041400759042262009 0.0039854622984236152 0.007850875913509971 0.005381679503114206 0.0037846524567980611 0.0095042730786282278 0.0082759167994670979 0.0082480707199308924 0.01459658547112015 0.02963818693411439 0.01348159639352434 0 0 0 0 0.0025000000000000001 0.0025000000000000001 0.0025000000000000001 0.0025000000000000001 0 0 0.0050000000000000001 0 0.010477667344183201 0.01284643002126089 0.00012275481760709659 0.0095042730786282278 0.0082759167994670979 0.0082480707199308924 0.01459658547112015 0.02963818693411439 0.01348159639352434 0.034373062133854368 0.040091712813656893 0.017906843810535381 0.0050000000000000001 0 0.0050000000000000001 0 0 0.0050000000000000001 0.0025000000000000001 0.0025000000000000001 0.067187500000176273 0 0 0.12937500000035251 0.0095042730786282278 0.0082759167994670979 0.0082480707199308924 0.0025000000000000001 0.0025000000000000001 0.02029496691504501 0.045799116620837459 0.028040759187074001 0.036821396352863953 0.034373062133854368 0.040091712813656893 0.017906843810535381 0.0050000000000000001 0 0.0050000000000000001 0.0045817963841059857 0.0043364158334714669 0.009473343555270677 0.0025000000000000001 0.0025000000000000001 0.02029496691504501 0.056489871231288402 0.0025000000000000001 0.0025000000000000001 0.0050000000000000001 0 0.0050000000000000001 0.0045817963841059857 0.0043364158334714669 0.009473343555270677 0.028851790063782669 0.0025000000000000001 0.0025000000000000001 0.056489871231288402 0.0025000000000000001 0.0025000000000000001 0.0095042730786282278 0.0082759167994670979 0.0082480707199308924 0.0045817963841059857 0.0043364158334714669 0.009473343555270677 0.0025000000000000001 0.0025000000000000001 0.02029496691504501 0.056489871231288402 0.0025000000000000001 0.0025000000000000001 0.0095042730786282278 0.0082759167994670979 0.0082480707199308924 0.0045817963841059857 0.0043364158334714669 0.009473343555270677 0.028851790063782669 0.0025000000000000001 0.0025000000000000001 0.056489871231288402 0.0025000000000000001 0.0025000000000000001 0.0095042730786282278 0.0082759167994670979 0.0082480707199308924 0.0025000000000000001 0.0025000000000000001 0.02029496691504501 0.056489871231288402 0.0025000000000000001 0.0025000000000000001 0.045799116620837459 0.028040759187074001 0.036821396352863953 0 0.0050000000000000001 0.0050000000000000001 0 0.0050000000000000001 0 0.016153278899017791 0.044583689206717327 0.01563807923371947 0.0025000000000000001 0.056489871231288402 0.0025000000000000001 0.056489871231288402 0.0025000000000000001 0.0025000000000000001 0.045799116620837459 0.028040759187074001 0.036821396352863953 0.034373062133854368 0.040091712813656893 0.017906843810535381 0.073580292400886219 0.073580292401008413 0 0.028851790063782669 0.0025000000000000001 0.0025000000000000001 0.056489871231288402 0.0025000000000000001 0.0025000000000000001 0.034373062133854368 0.040091712813656893 0.017906843810535381 0.073580292400886219 0.073580292401008413 0 0.0050000000000000001 0 0 0.0050000000000000001 0 0.0050000000000000001 0.056489871231288402 0.0025000000000000001 0.0025000000000000001 0.128749999999761 0 0 0.0095042730786282278 0.0082759167994670979 0.0082480707199308924 0.0045817963841059857 0.0043364158334714669 0.009473343555270677 0.0025000000000000001 0.0025000000000000001 0.02029496691504501 0.01335482532982827 0.061921935510367468 0.031596396334779613 0 0.0050000000000000001 0.0050000000000000001 0.0025000000000000001 0.0025000000000000001 0.02029496691504501 0.0025000000000000001 0.0025000000000000001 0.035993247487525602 0.01335482532982827 0.061921935510367468 0.031596396334779613 0 0.0050000000000000001 0.0050000000000000001 0.0038256098144006869 0.0041400759042262009 0.0039854622984236152 0 0.0050000000000000001 0 0.01459658547112015 0.02963818693411439 0.01348159639352434 0.0050000000000000001 0 0 0.0050000000000000001 0.0050000000000000001 0 0.013289992014046129 0.0065291354129584592 0.0037710740372293499 0.007850875913509971 0.005381679503114206 0.0037846524567980611 0.0050000000000000001 0 0 0.0050000000000000001 0.0050000000000000001 0 0.056489871231288402 0.0025000000000000001 0.0025000000000000001 0.128749999999761 0 0 0.0025000000000000001 0.0025000000000000001 0.035993247487525602 0.053495808280144469 0.082973914578683722 0.047312437411078337 0 0.0736402080526046 0.073773792303481078 0.0025000000000000001 0.0025000000000000001 0.067187500000176273 0.0050000000000000001 0 0 0.0050000000000000001 0.0050000000000000001 0 0.013289992014046129 0.0065291354129584592 0.0037710740372293499 0.028851790063782669 0.0025000000000000001 0.0025000000000000001 0.0050000000000000001 0.0050000000000000001 0 0.010477667344183201 0.01284643002126089 0.00012275481760709659 0.013289992014046129 0.0065291354129584592 0.0037710740372293499 0.028851790063782669 0.0025000000000000001 0.0025000000000000001 0.0050000000000000001 0 0 0.0050000000000000001 0.0050000000000000001 0 0.028851790063782669 0.0025000000000000001 0.0025000000000000001 0.056489871231288402 0.0025000000000000001 0.0025000000000000001 0.0050000000000000001 0.0050000000000000001 0 0 0.0050000000000000001 0 0.0025000000000000001 0.056489871231288402 0.0025000000000000001 0 0.12875000000032791 0 0.0050000000000000001 0.0050000000000000001 0 0.010477667344183201 0.01284643002126089 0.00012275481760709659 0.0025000000000000001 0.056489871231288402 0.0025000000000000001 0 0.12875000000032791 0 0.0050000000000000001 0.0050000000000000001 0 0 0.0050000000000000001 0 0.01459658547112015 0.02963818693411439 0.01348159639352434 0.016153278899017791 0.044583689206717327 0.01563807923371947 0.0050000000000000001 0.0050000000000000001 0 0.010477667344183201 0.01284643002126089 0.00012275481760709659 0.01459658547112015 0.02963818693411439 0.01348159639352434 0.016153278899017791 0.044583689206717327 0.01563807923371947 0.0050000000000000001 0.0050000000000000001 0 0 0.0050000000000000001 0 0.016153278899017791 0.044583689206717327 0.01563807923371947 0.0025000000000000001 0.056489871231288402 0.0025000000000000001 0.0050000000000000001 0.0050000000000000001 0 0.010477667344183201 0.01284643002126089 0.00012275481760709659 0.016153278899017791 0.044583689206717327 0.01563807923371947 0.0025000000000000001 0.056489871231288402 0.0025000000000000001 0.0050000000000000001 0 0.0050000000000000001 0.056489871231288402 0.0025000000000000001 0.0025000000000000001 0.073626545880309466 0 0.073777028331958816 0.0025000000000000001 0.0025000000000000001 0.067187500000176273 0.0025000000000000001 0.0025000000000000001 0.02029496691504501 0.045799116620837459 0.028040759187074001 0.036821396352863953 0
[...]
<PointData Scalars="" Vectors="displacement," Tensors="">
<DataArray type="Float64" Name="displacement" NumberOfComponents="3" format="ascii">
32720958.708315372 25501479.411824543 7727217.3333599279 32769942.129005417 25551095.10587978 7752356.5996276131 32718023.320428476 25521864.279559489 7794413.3957667099 32480024.514605619 25444449.744473964 8153627.7577832043 32726172.185086284 25472945.931251246 7630437.1138447868 32703624.71260374 25472945.939741224 7686039.3108160831 31890078.892317556 24792666.69960203 7691396.2822439466 31076532.890783548 24089840.007271964 7630436.0892849639 32303821.584793996 25139560.840161987 7691396.5269736107 32094177.449838083 25237405.504829653 8496167.1061803401 31790795.538719278 25243650.899861488 9262682.0756658129 31481917.042228263 24708150.830953427 8449348.392318625 32748057.287854828 25755486.777878687 8407487.9831262082 32177662.317211654 25325607.825270314 8549716.1803722922 32303821.584793996 25139560.840161987 7691396.5269736107 31890078.892317556 24792666.69960203 7691396.2822439466 32703624.71260374 25472945.939741224 7686039.3108160831 32645771.51254297 25479685.169406779 7848528.3227938665 32647285.15774719 25443861.858487468 7739430.3184388932 32094177.449838083 25237405.504829653 8496167.1061803401 32177662.317211654 25325607.825270314 8549716.1803722922 32303821.584793996 25139560.840161987 7691396.5269736107 31790795.538719278 25243650.899861488 9262682.0756658129 31890078.892317556 24792666.69960203 7691396.2822439466 32748057.287854828 25755486.777878687 8407487.9831262082 32177662.317211654 25325607.825270314 8549716.1803722922 31813952.512908239 25040131.629958544 8606977.7433991674 31890078.892317556 24792666.69960203 7691396.2822439466 32177662.317211654 25325607.825270314 8549716.1803722922 31790795.538719278 25243650.899861488 9262682.0756658129 31813952.512908239 25040131.629958544 8606977.7433991674 31890078.892317556 24792666.69960203 7691396.2822439466 32748057.287854828 25755486.777878687 8407487.9831262082 32177662.317211654 25325607.825270314 8549716.1803722922 32460681.678521186 25860356.779421467 9424610.1592226587 31813952.512908239 25040131.629958544 8606977.7433991674 32177662.317211654 25325607.825270314 8549716.1803722922 31790795.538719278 25243650.899861488 9262682.0756658129 32460681.678521186 25860356.779421467 9424610.1592226587 31813952.512908239 25040131.629958544 8606977.7433991674 32792489.504487451 25528547.879791837 7630437.3399434313 32748057.147415079 25500746.920390461 7658238.3049527816 32781215.728916038 25539821.568989482 7691396.9010338401 32759331.013199076 25512020.578748278 7663595.8442521375 32726172.185086284 25472945.931251246 7630437.1138447868 32703624.71260374 25472945.939741224 7686039.3108160831 32303821.584793996 25139560.840161987 7691396.5269736107 31890078.892317556 24792666.69960203 7691396.2822439466 32732930.765645724 25574431.472097781 7912265.0621300731 32718023.320428476 25521864.279559489 7794413.3957667099 32645771.51254297 25479685.169406779 7848528.3227938665 32480024.514605619 25444449.744473964 8153627.7577832043 32769942.129005417 25551095.10587978 7752356.5996276131 32732930.765645724 25574431.472097781 7912265.0621300731 32718023.320428476 25521864.279559489 7794413.3957667099 32480024.514605619 25444449.744473964 8153627.7577832043 32720958.708315372 25501479.411824543 7727217.3333599279 32718023.320428476 25521864.279559489 7794413.3957667099 32645771.51254297 25479685.169406779 7848528.3227938665 32480024.514605619 25444449.744473964 8153627.7577832043 32792489.504487451 25528547.879791837 7630437.3399434313 32748057.147415079 25500746.920390461 7658238.3049527816 32781215.728916038 25539821.568989482 7691396.9010338401 32769941.988031477 25528547.963792551 7686039.3661495941 32732930.765645724 25574431.472097781 7912265.0621300731 32645771.51254297 25479685.169406779 7848528.3227938665 32480024.514605619 25444449.744473964 8153627.7577832043 32374190.770866327 25484420.617632449 8532179.6698761191 32726172.27322083 25495493.315704267 7696754.2730049193 32726172.185086284 25472945.931251246 7630437.1138447868 31890078.892317556 24792666.69960203 7691396.2822439466 31076532.890783548 24089840.007271964 7630436.0892849639 32645771.51254297 25479685.169406779 7848528.3227938665 32512034.632539906 25314132.812185179 7691396.683137292 32177662.317211654 25325607.825270314 8549716.1803722922 32374190.770866327 25484420.617632449 8532179.6698761191 32726172.27322083 25495493.315704267 7696754.2730049193 32647285.15774719 25443861.858487468 7739430.3184388932 32512034.632539906 25314132.812185179 7691396.683137292 32748057.287854828 25755486.777878687 8407487.9831262082 32726172.27322083 25495493.315704267 7696754.2730049193 32647285.15774719 25443861.858487468 7739430.3184388932 32748057.211253185 25630853.304653112 8040912.1006154753 32748057.287854828 25755486.777878687 8407487.9831262082 32645771.51254297 25479685.169406779 7848528.3227938665 32647285.15774719 25443861.858487468 7739430.3184388932 32512034.632539906 25314132.812185179 7691396.683137292 32748057.287854828 25755486.777878687 8407487.9831262082 32645771.51254297 25479685.169406779 7848528.3227938665 32647285.15774719 25443861.858487468 7739430.3184388932 32748057.211253185 25630853.304653112 8040912.1006154753 32748057.287854828 25755486.777878687 8407487.9831262082 32645771.51254297 25479685.169406779 7848528.3227938665 32512034.632539906 25314132.812185179 7691396.683137292 32748057.287854828 25755486.777878687 8407487.9831262082 32177662.317211654 25325607.825270314 8549716.1803722922 32703624.71260374 25472945.939741224 7686039.3108160831 32769941.988031477 25528547.963792551 7686039.3661495941 32384025.847854465 25427488.631506439 8340475.3919925718 32504591.563199654 25512020.758690223 8291788.0847092345 32748057.287854828 25755486.777878687 8407487.9831262082 32177662.317211654 25325607.825270314 8549716.1803722922 32374190.770866327 25484420.617632449 8532179.6698761191 32460681.678521186 25860356.779421467 9424610.1592226587 32748057.211253185 25630853.304653112 8040912.1006154753 32748057.287854828 25755486.777878687 8407487.9831262082 32374190.770866327 25484420.617632449 8532179.6698761191 32460681.678521186 25860356.779421467 9424610.1592226587 32792489.477558628 25551095.157295059 7696754.3786224714 32726172.27322083 25495493.315704267 7696754.2730049193 32748057.287854828 25755486.777878687 8407487.9831262082 32792489.815902974 26109143.323156059 9338104.3397578839 32645771.51254297 25479685.169406779 7848528.3227938665 32647285.15774719 25443861.858487468 7739430.3184388932 32512034.632539906 25314132.812185179 7691396.683137292 32094177.449838083 25237405.504829653 8496167.1061803401 32703624.71260374 25472945.939741224 7686039.3108160831 32512034.632539906 25314132.812185179 7691396.683137292 32303821.584793996 25139560.840161987 7691396.5269736107 32094177.449838083 25237405.504829653 8496167.1061803401 32703624.71260374 25472945.939741224 7686039.3108160831 32720958.708315372 25501479.411824543 7727217.3333599279 32769941.988031477 25528547.963792551 7686039.3661495941 32480024.514605619 25444449.744473964 8153627.7577832043 32792489.477558628 25551095.157295059 7696754.3786224714 32769942.129005417 25551095.10587978 7752356.5996276131 32713029.063288301 25546542.850333568 7879314.9838608494 32718023.320428476 25521864.279559489 7794413.3957667099 32792489.477558628 25551095.157295059 7696754.3786224714 32769942.129005417 25551095.10587978 7752356.5996276131 32748057.287854828 25755486.777878687 8407487.9831262082 32792489.815902974 26109143.323156059 9338104.3397578839 32303821.584793996 25139560.840161987 7691396.5269736107 31790795.538719278 25243650.899861488 9262682.0756658129 31481917.042228263 24708150.830953427 8449348.392318625 31890078.892317556 24792666.69960203 7691396.2822439466 32792489.477558628 25551095.157295059 7696754.3786224714 32769942.129005417 25551095.10587978 7752356.5996276131 32713029.063288301 25546542.850333568 7879314.9838608494 32748057.211253185 25630853.304653112 8040912.1006154753 32769942.129005417 25551095.10587978 7752356.5996276131 32732930.765645724 25574431.472097781 7912265.0621300731 32713029.063288301 25546542.850333568 7879314.9838608494 32748057.211253185 25630853.304653112 8040912.1006154753 32792489.477558628 25551095.157295059 7696754.3786224714 32769942.129005417 25551095.10587978 7752356.5996276131 32748057.211253185 25630853.304653112 8040912.1006154753 32748057.287854828 25755486.777878687 8407487.9831262082 32769942.129005417 25551095.10587978 7752356.5996276131 32769941.988031477 25528547.963792551 7686039.3661495941 32504591.563199654 25512020.758690223 8291788.0847092345 32211895.634267822 25528548.60724372 9062194.0144040007 32769942.129005417 25551095.10587978 7752356.5996276131 32732930.765645724 25574431.472097781 7912265.0621300731 32504591.563199654 25512020.758690223 8291788.0847092345 32211895.634267822 25528548.60724372 9062194.0144040007 32769942.129005417 25551095.10587978 7752356.5996276131 32769941.988031477 25528547.963792551 7686039.3661495941 32480024.514605619 25444449.744473964 8153627.7577832043 32384025.847854465 25427488.631506439 8340475.3919925718 32769942.129005417 25551095.10587978 7752356.5996276131 32732930.765645724 25574431.472097781 7912265.0621300731 32480024.514605619 25444449.744473964 8153627.7577832043 32384025.847854465 25427488.631506439 8340475.3919925718 32769942.129005417 25551095.10587978 7752356.5996276131 32769941.988031477 25528547.963792551 7686039.3661495941 32384025.847854465 25427488.631506439 8340475.3919925718 32504591.563199654 25512020.758690223 8291788.0847092345 32769942.129005417 25551095.10587978 7752356.5996276131 32732930.765645724 25574431.472097781 7912265.0621300731 32384025.847854465 25427488.631506439 8340475.3919925718 32504591.563199654 25512020.758690223 8291788.0847092345 32726172.27322083 25495493.315704267 7696754.2730049193 32748057.287854828 25755486.777878687 8407487.9831262082 31813952.512908239 25040131.629958544 8606977.7433991674 31890078.892317556 24792666.69960203 7691396.2822439466 32512034.632539906 25314132.812185179 7691396.683137292 32177662.317211654 25325607.825270314 8549716.1803722922 32303821.584793996 25139560.840161987 7691396.5269736107 32374190.770866327 25484420.617632449 8532179.6698761191 32726172.27322083 25495493.315704267 7696754.2730049193 32748057.287854828 25755486.777878687 8407487.9831262082 32303821.584793996 25139560.840161987 7691396.5269736107 31890078.892317556 24792666.69960203 7691396.2822439466 32703624.71260374 25472945.939741224 7686039.3108160831 32645771.51254297 25479685.169406779 7848528.3227938665 32480024.514605619 25444449.744473964 8153627.7577832043 32094177.449838083 25237405.504829653 8496167.1061803401 32703624.71260374 25472945.939741224 7686039.3108160831 32303821.584793996 25139560.840161987 7691396.5269736107 31481917.042228263 24708150.830953427 8449348.392318625 31890078.892317556 24792666.69960203 7691396.2822439466 32703624.71260374 25472945.939741224 7686039.3108160831 32303821.584793996 25139560.840161987 7691396.5269736107 32094177.449838083 25237405.504829653 8496167.1061803401 31481917.042228263 24708150.830953427 8449348.392318625 32703624.71260374 25472945.939741224 7686039.3108160831 32647285.15774719 25443861.858487468 7739430.3184388932 32512034.632539906 25314132.812185179 7691396.683137292 32094177.449838083 25237405.504829653 8496167.1061803401 32720958.708315372 25501479.411824543 7727217.3333599279 32769942.129005417 25551095.10587978 7752356.5996276131 32769941.988031477 25528547.963792551 7686039.3661495941 32480024.514605619 25444449.744473964 8153627.7577832043 32713029.063288301 25546542.850333568 7879314.9838608494 32645771.51254297 25479685.169406779 7848528.3227938665 32748057.211253185 25630853.304653112 8040912.1006154753 32374190.770866327 25484420.617632449 8532179.6698761191 32177662.317211654 25325607.825270314 8549716.1803722922 32303821.584793996 25139560.840161987 7691396.5269736107 32374190.770866327 25484420.617632449 8532179.6698761191 31790795.538719278 25243650.899861488 9262682.0756658129 32792489.504487451 25528547.879791837 7630437.3399434313 32781215.728916038 25539821.568989482 7691396.9010338401 32759331.013199076 25512020.578748278 7663595.8442521375 32792489.477558628 25551095.157295059 7696754.3786224714 32303821.584793996 25139560.840161987 7691396.5269736107 32094177.449838083 25237405.504829653 8496167.1061803401 32374190.770866327 25484420.617632449 8532179.6698761191 31790795.538719278 25243650.899861488 9262682.0756658129 32792489.504487451 25528547.879791837 7630437.3399434313 32748057.147415079 25500746.920390461 7658238.3049527816 32759331.013199076 25512020.578748278 7663595.8442521375 32726172.185086284 25472945.931251246 7630437.1138447868 32769942.129005417 25551095.10587978 7752356.5996276131 32732930.765645724 25574431.472097781 7912265.0621300731 32748057.211253185 25630853.304653112 8040912.1006154753 32460681.678521186 25860356.779421467 9424610.1592226587 32769942.129005417 25551095.10587978 7752356.5996276131 32748057.211253185 25630853.304653112 8040912.1006154753 32748057.287854828 25755486.777878687 8407487.9831262082 32460681.678521186 25860356.779421467 9424610.1592226587 32512034.632539906 25314132.812185179 7691396.683137292 32303821.584793996 25139560.840161987 7691396.5269736107 32094177.449838083 25237405.504829653 8496167.1061803401 32374190.770866327 25484420.617632449 8532179.6698761191 32792489.477558628 25551095.157295059 7696754.3786224714 32726172.27322083 25495493.315704267 7696754.2730049193 32713029.063288301 25546542.850333568 7879314.9838608494 32718023.320428476 25521864.279559489 7794413.3957667099 32732930.765645724 25574431.472097781 7912265.0621300731 32748057.211253185 25630853.304653112 8040912.1006154753 32504591.563199654 25512020.758690223 8291788.0847092345 32460681.678521186 25860356.779421467 9424610.1592226587 32748057.211253185 25630853.304653112 8040912.1006154753 32374190.770866327 25484420.617632449 8532179.6698761191 32504591.563199654 25512020.758690223 8291788.0847092345 32460681.678521186 25860356.779421467 9424610.1592226587 32792489.477558628 25551095.157295059 7696754.3786224714 32726172.27322083 25495493.315704267 7696754.2730049193 32713029.063288301 25546542.850333568 7879314.9838608494 32748057.211253185 25630853.304653112 8040912.1006154753 32748057.147415079 25500746.920390461 7658238.3049527816 32781215.728916038 25539821.568989482 7691396.9010338401 32720958.708315372 25501479.411824543 7727217.3333599279 32769941.988031477 25528547.963792551 7686039.3661495941 32781215.728916038 25539821.568989482 7691396.9010338401 32759331.013199076 25512020.578748278 7663595.8442521375 32792489.477558628 25551095.157295059 7696754.3786224714 32720958.708315372 25501479.411824543 7727217.3333599279 32726172.27322083 25495493.315704267 7696754.2730049193 32713029.063288301 25546542.850333568 7879314.9838608494 32718023.320428476 25521864.279559489 7794413.3957667099 32647285.15774719 25443861.858487468 7739430.3184388932 32713029.063288301 25546542.850333568 7879314.9838608494 32645771.51254297 25479685.169406779 7848528.3227938665 32647285.15774719 25443861.858487468 7739430.3184388932 32748057.211253185 25630853.304653112 8040912.1006154753 32769942.129005417 25551095.10587978 7752356.5996276131 32732930.765645724 25574431.472097781 7912265.0621300731 32460681.678521186 25860356.779421467 9424610.1592226587 32211895.634267822 25528548.60724372 9062194.0144040007 32726172.27322083 25495493.315704267 7696754.2730049193 32713029.063288301 25546542.850333568 7879314.9838608494 32647285.15774719 25443861.858487468 7739430.3184388932 32748057.211253185 25630853.304653112 8040912.1006154753 32703624.71260374 25472945.939741224 7686039.3108160831 32769941.988031477 25528547.963792551 7686039.3661495941 32480024.514605619 25444449.744473964 8153627.7577832043 32384025.847854465 25427488.631506439 8340475.3919925718 32732930.765645724 25574431.472097781 7912265.0621300731 32713029.063288301 25546542.850333568 7879314.9838608494 32645771.51254297 25479685.169406779 7848528.3227938665 32374190.770866327 25484420.617632449 8532179.6698761191 32748057.147415079 25500746.920390461 7658238.3049527816 32759331.013199076 25512020.578748278 7663595.8442521375 32726172.185086284 25472945.931251246 7630437.1138447868 32720958.708315372 25501479.411824543 7727217.3333599279 32792489.477558628 25551095.157295059 7696754.3786224714 32726172.27322083 25495493.315704267 7696754.2730049193 32748057.211253185 25630853.304653112 8040912.1006154753 32748057.287854828 25755486.777878687 8407487.9831262082 32726172.27322083 25495493.315704267 7696754.2730049193 32512034.632539906 25314132.812185179 7691396.683137292 32748057.287854828 25755486.777878687 8407487.9831262082 32303821.584793996 25139560.840161987 7691396.5269736107 32703624.71260374 25472945.939741224 7686039.3108160831 32769941.988031477 25528547.963792551 7686039.3661495941 32504591.563199654 25512020.758690223 8291788.0847092345 32211895.634267822 25528548.60724372 9062194.0144040007 32645771.51254297 25479685.169406779 7848528.3227938665 32512034.632539906 25314132.812185179 7691396.683137292 32094177.449838083 25237405.504829653 8496167.1061803401 32374190.770866327 25484420.617632449 8532179.6698761191 32512034.632539906 25314132.812185179 7691396.683137292 32748057.287854828 25755486.777878687 8407487.9831262082 32177662.317211654 25325607.825270314 8549716.1803722922 32303821.584793996 25139560.840161987 7691396.5269736107 32732930.765645724 25574431.472097781 7912265.0621300731 32748057.211253185 25630853.304653112 8040912.1006154753 32374190.770866327 25484420.617632449 8532179.6698761191 32504591.563199654 25512020.758690223 8291788.0847092345 32703624.71260374 25472945.939741224 7686039.3108160831 32720958.708315372 25501479.411824543 7727217.3333599279 32645771.51254297 25479685.169406779 7848528.3227938665 32480024.514605619 25444449.744473964 8153627.7577832043 32732930.765645724 25574431.472097781 7912265.0621300731 32713029.063288301 25546542.850333568 7879314.9838608494 32748057.211253185 25630853.304653112 8040912.1006154753 32374190.770866327 25484420.617632449 8532179.6698761191 32703624.71260374 25472945.939741224 7686039.3108160831 32720958.708315372 25501479.411824543 7727217.3333599279 32645771.51254297 25479685.169406779 7848528.3227938665 32647285.15774719 25443861.858487468 7739430.3184388932 32726172.27322083 25495493.315704267 7696754.2730049193 32726172.185086284 25472945.931251246 7630437.1138447868 32303821.584793996 25139560.840161987 7691396.5269736107 31890078.892317556 24792666.69960203 7691396.2822439466 32748057.147415079 25500746.920390461 7658238.3049527816 32781215.728916038 25539821.568989482 7691396.9010338401 32759331.013199076 25512020.578748278 7663595.8442521375 32720958.708315372 25501479.411824543 7727217.3333599279 32792489.477558628 25551095.157295059 7696754.3786224714 32720958.708315372 25501479.411824543 7727217.3333599279 32769942.129005417 25551095.10587978 7752356.5996276131 32718023.320428476 25521864.279559489 7794413.3957667099 32759331.013199076 25512020.578748278 7663595.8442521375 32792489.477558628 25551095.157295059 7696754.3786224714 32726172.27322083 25495493.315704267 7696754.2730049193 32720958.708315372 25501479.411824543 7727217.3333599279 32792489.477558628 25551095.157295059 7696754.3786224714 32726172.27322083 25495493.315704267 7696754.2730049193 32720958.708315372 25501479.411824543 7727217.3333599279 32718023.320428476 25521864.279559489 7794413.3957667099 32781215.728916038 25539821.568989482 7691396.9010338401 32792489.477558628 25551095.157295059 7696754.3786224714 32720958.708315372 25501479.411824543 7727217.3333599279 32769942.129005417 25551095.10587978 7752356.5996276131 32726172.27322083 25495493.315704267 7696754.2730049193 32720958.708315372 25501479.411824543 7727217.3333599279 32718023.320428