<?xml version="1.0"?>
<VTKFile type="UnstructuredGrid" version="0.1" byte_order="LittleEndian">
<UnstructuredGrid>
<Piece NumberOfPoints="23284" NumberOfCells="5821">
<Points>
<DataArray type="Float64" NumberOfComponents="3" format="ascii">
0.0038256098144006869 0.0041400759042262009 0.0039854622984236152 0.0050000000000000001 0.0050000000000000001 0 0.007850875913509971 0.005381679503114206 0.0037846524567980611 0.01459658547112015 0.02963818693411439 0.01348159639352434 0 0 0.0050000000000000001 0 0.0050000000000000001 0.0050000000000000001 0.0025000000000000001 0.0025000000000000001 0.067187500000176273 0 0 0.12937500000035251 0.0025000000000000001 0.0025000000000000001 0.035993247487525602 0.01335482532982827 0.061921935510367468 0.031596396334779613 0.053495808280144469 0.082973914578683722 0.047312437411078337 0 0.0736402080526046 0.073773792303481078 0.056489871231288402 0.0025000000000000001 0.0025000000000000001 0.045799116620837459 0.028040759187074001 0.036821396352863953 0.0025000000000000001 0.0025000000000000001 0.035993247487525602 0.0025000000000000001 0.0025000000000000001 0.067187500000176273 0 0.0050000000000000001 0.0050000000000000001 0.0095042730786282278 0.0082759167994670979 0.0082480707199308924 0.0045817963841059857 0.0043364158334714669 0.009473343555270677 0.01335482532982827 0.061921935510367468 0.031596396334779613 0.045799116620837459 0.028040759187074001 0.036821396352863953 0.0025000000000000001 0.0025000000000000001 0.035993247487525602 0.053495808280144469 0.082973914578683722 0.047312437411078337 0.0025000000000000001 0.0025000000000000001 0.067187500000176273 0.056489871231288402 0.0025000000000000001 0.0025000000000000001 0.045799116620837459 0.028040759187074001 0.036821396352863953 0.073626545880309466 0 0.073777028331958816 0.0025000000000000001 0.0025000000000000001 0.067187500000176273 0.045799116620837459 0.028040759187074001 0.036821396352863953 0.053495808280144469 0.082973914578683722 0.047312437411078337 0.073626545880309466 0 0.073777028331958816 0.0025000000000000001 0.0025000000000000001 0.067187500000176273 0.056489871231288402 0.0025000000000000001 0.0025000000000000001 0.045799116620837459 0.028040759187074001 0.036821396352863953 0.073580292400886219 0.073580292401008413 0 0.073626545880309466 0 0.073777028331958816 0.045799116620837459 0.028040759187074001 0.036821396352863953 0.053495808280144469 0.082973914578683722 0.047312437411078337 0.073580292400886219 0.073580292401008413 0 0.073626545880309466 0 0.073777028331958816 0 0 0 0 0.0025000000000000001 0.0025000000000000001 0.0025000000000000001 0.0025000000000000001 0 0.0025000000000000001 0 0.0025000000000000001 0 0 0.0050000000000000001 0 0.0050000000000000001 0.0050000000000000001 0.0025000000000000001 0.0025000000000000001 0.035993247487525602 0.0025000000000000001 0.0025000000000000001 0.067187500000176273 0.010477667344183201 0.01284643002126089 0.00012275481760709659 0.007850875913509971 0.005381679503114206 0.0037846524567980611 0.0095042730786282278 0.0082759167994670979 0.0082480707199308924 0.01459658547112015 0.02963818693411439 0.01348159639352434 0.0050000000000000001 0.0050000000000000001 0 0.010477667344183201 0.01284643002126089 0.00012275481760709659 0.007850875913509971 0.005381679503114206 0.0037846524567980611 0.01459658547112015 0.02963818693411439 0.01348159639352434 0.0038256098144006869 0.0041400759042262009 0.0039854622984236152 0.007850875913509971 0.005381679503114206 0.0037846524567980611 0.0095042730786282278 0.0082759167994670979 0.0082480707199308924 0.01459658547112015 0.02963818693411439 0.01348159639352434 0 0 0 0 0.0025000000000000001 0.0025000000000000001 0.0025000000000000001 0.0025000000000000001 0 0 0.0050000000000000001 0 0.010477667344183201 0.01284643002126089 0.00012275481760709659 0.0095042730786282278 0.0082759167994670979 0.0082480707199308924 0.01459658547112015 0.02963818693411439 0.01348159639352434 0.034373062133854368 0.040091712813656893 0.017906843810535381 0.0050000000000000001 0 0.0050000000000000001 0 0 0.0050000000000000001 0.0025000000000000001 0.0025000000000000001 0.067187500000176273 0 0 0.12937500000035251 0.0095042730786282278 0.0082759167994670979 0.0082480707199308924 0.0025000000000000001 0.0025000000000000001 0.02029496691504501 0.045799116620837459 0.028040759187074001 0.036821396352863953 0.034373062133854368 0.040091712813656893 0.017906843810535381 0.0050000000000000001 0 0.0050000000000000001 0.0045817963841059857 0.0043364158334714669 0.009473343555270677 0.0025000000000000001 0.0025000000000000001 0.02029496691504501 0.056489871231288402 0.0025000000000000001 0.0025000000000000001 0.0050000000000000001 0 0.0050000000000000001 0.0045817963841059857 0.0043364158334714669 0.009473343555270677 0.028851790063782669 0.0025000000000000001 0.0025000000000000001 0.056489871231288402 0.0025000000000000001 0.0025000000000000001 0.0095042730786282278 0.0082759167994670979 0.0082480707199308924 0.0045817963841059857 0.0043364158334714669 0.009473343555270677 0.0025000000000000001 0.0025000000000000001 0.02029496691504501 0.056489871231288402 0.0025000000000000001 0.0025000000000000001 0.0095042730786282278 0.0082759167994670979 0.0082480707199308924 0.0045817963841059857 0.0043364158334714669 0.009473343555270677 0.028851790063782669 0.0025000000000000001 0.0025000000000000001 0.056489871231288402 0.0025000000000000001 0.0025000000000000001 0.0095042730786282278 0.0082759167994670979 0.0082480707199308924 0.0025000000000000001 0.0025000000000000001 0.02029496691504501 0.056489871231288402 0.0025000000000000001 0.0025000000000000001 0.045799116620837459 0.028040759187074001 0.036821396352863953 0 0.0050000000000000001 0.0050000000000000001 0 0.0050000000000000001 0 0.016153278899017791 0.044583689206717327 0.01563807923371947 0.0025000000000000001 0.056489871231288402 0.0025000000000000001 0.056489871231288402 0.0025000000000000001 0.0025000000000000001 0.045799116620837459 0.028040759187074001 0.036821396352863953 0.034373062133854368 0.040091712813656893 0.017906843810535381 0.073580292400886219 0.073580292401008413 0 0.028851790063782669 0.0025000000000000001 0.0025000000000000001 0.056489871231288402 0.0025000000000000001 0.0025000000000000001 0.034373062133854368 0.040091712813656893 0.017906843810535381 0.073580292400886219 0.073580292401008413 0 0.0050000000000000001 0 0 0.0050000000000000001 0 0.0050000000000000001 0.056489871231288402 0.0025000000000000001 0.0025000000000000001 0.128749999999761 0 0 0.0095042730786282278 0.0082759167994670979 0.0082480707199308924 0.0045817963841059857 0.0043364158334714669 0.009473343555270677 0.0025000000000000001 0.0025000000000000001 0.02029496691504501 0.01335482532982827 0.061921935510367468 0.031596396334779613 0 0.0050000000000000001 0.0050000000000000001 0.0025000000000000001 0.0025000000000000001 0.02029496691504501 0.0025000000000000001 0.0025000000000000001 0.035993247487525602 0.01335482532982827 0.061921935510367468 0.031596396334779613 0 0.0050000000000000001 0.0050000000000000001 0.0038256098144006869 0.0041400759042262009 0.0039854622984236152 0 0.0050000000000000001 0 0.01459658547112015 0.02963818693411439 0.01348159639352434 0.0050000000000000001 0 0 0.0050000000000000001 0.0050000000000000001 0 0.013289992014046129 0.0065291354129584592 0.0037710740372293499 0.007850875913509971 0.005381679503114206 0.0037846524567980611 0.0050000000000000001 0 0 0.0050000000000000001 0.0050000000000000001 0 0.056489871231288402 0.0025000000000000001 0.0025000000000000001 0.128749999999761 0 0 0.0025000000000000001 0.0025000000000000001 0.035993247487525602 0.053495808280144469 0.082973914578683722 0.047312437411078337 0 0.0736402080526046 0.073773792303481078 0.0025000000000000001 0.0025000000000000001 0.067187500000176273 0.0050000000000000001 0 0 0.0050000000000000001 0.0050000000000000001 0 0.013289992014046129 0.0065291354129584592 0.0037710740372293499 0.028851790063782669 0.0025000000000000001 0.0025000000000000001 0.0050000000000000001 0.0050000000000000001 0 0.010477667344183201 0.01284643002126089 0.00012275481760709659 0.013289992014046129 0.0065291354129584592 0.0037710740372293499 0.028851790063782669 0.0025000000000000001 0.0025000000000000001 0.0050000000000000001 0 0 0.0050000000000000001 0.0050000000000000001 0 0.028851790063782669 0.0025000000000000001 0.0025000000000000001 0.056489871231288402 0.0025000000000000001 0.0025000000000000001 0.0050000000000000001 0.0050000000000000001 0 0 0.0050000000000000001 0 0.0025000000000000001 0.056489871231288402 0.0025000000000000001 0 0.12875000000032791 0 0.0050000000000000001 0.0050000000000000001 0 0.010477667344183201 0.01284643002126089 0.00012275481760709659 0.0025000000000000001 0.056489871231288402 0.0025000000000000001 0 0.12875000000032791 0 0.0050000000000000001 0.0050000000000000001 0 0 0.0050000000000000001 0 0.01459658547112015 0.02963818693411439 0.01348159639352434 0.016153278899017791 0.044583689206717327 0.01563807923371947 0.0050000000000000001 0.0050000000000000001 0 0.010477667344183201 0.01284643002126089 0.00012275481760709659 0.01459658547112015 0.02963818693411439 0.01348159639352434 0.016153278899017791 0.044583689206717327 0.01563807923371947 0.0050000000000000001 0.0050000000000000001 0 0 0.0050000000000000001 0 0.016153278899017791 0.044583689206717327 0.01563807923371947 0.0025000000000000001 0.056489871231288402 0.0025000000000000001 0.0050000000000000001 0.0050000000000000001 0 0.010477667344183201 0.01284643002126089 0.00012275481760709659 0.016153278899017791 0.044583689206717327 0.01563807923371947 0.0025000000000000001 0.056489871231288402 0.0025000000000000001 0.0050000000000000001 0 0.0050000000000000001 0.056489871231288402 0.0025000000000000001 0.0025000000000000001 0.073626545880309466 0 0.073777028331958816 0.0025000000000000001 0.0025000000000000001 0.067187500000176273 0.0025000000000000001 0.0025000000000000001 0.02029496691504501 0.045799116620837459 0.028040759187074001 0.036821396352863953 0
[...]
<PointData Scalars="" Vectors="displacement," Tensors="">
<DataArray type="Float64" Name="displacement" NumberOfComponents="3" format="ascii">
8385815.3738186648 4465630.0795487948 210268.1640214675 8402275.5546350181 4478661.0986974631 217930.10031519903 8383882.1018185923 4475430.5533557227 232111.1717947796 8283085.8197234105 4465865.3426487716 326157.39242703631 8390665.6240404546 4454182.1445380589 181841.29349110782 8379138.0518849688 4454182.1584601933 194792.5669735703 8097129.0176195167 4298864.667663035 199885.6314085481 7815119.9342175703 4132019.6323862514 181841.19425158994 8241480.4917871449 4379665.6189968986 199885.6586195014 8124828.9759364752 4416080.5684669893 404034.1298444462 8003567.3756999271 4467917.5732597765 644316.59748778364 7902636.2908228394 4276040.8565287339 372587.80985427403 8396470.6379614193 4590895.8947207602 449724.03065464646 8178763.7170453854 4477347.1949003479 466409.45847817068 8241480.4917871449 4379665.6189968986 199885.6586195014 8097129.0176195167 4298864.667663035 199885.6314085481 8379138.0518849688 4454182.1584601933 194792.5669735703 8356554.9252030076 4467681.0779111283 247259.06196732356 8359967.5237452537 4453158.4579730136 214275.98602412565 8124828.9759364752 4416080.5684669893 404034.1298444462 8178763.7170453854 4477347.1949003479 466409.45847817068 8241480.4917871449 4379665.6189968986 199885.6586195014 8003567.3756999271 4467917.5732597765 644316.59748778364 8097129.0176195167 4298864.667663035 199885.6314085481 8396470.6379614193 4590895.8947207602 449724.03065464646 8178763.7170453854 4477347.1949003479 466409.45847817068 8072399.6099884016 4445779.2978176214 522548.42027152242 8097129.0176195167 4298864.667663035 199885.6314085481 8178763.7170453854 4477347.1949003479 466409.45847817068 8003567.3756999271 4467917.5732597765 644316.59748778364 8072399.6099884016 4445779.2978176214 522548.42027152242 8097129.0176195167 4298864.667663035 199885.6314085481 8396470.6379614193 4590895.8947207602 449724.03065464646 8178763.7170453854 4477347.1949003479 466409.45847817068 8244163.051758212 4636773.6687620562 712925.82708003093 8072399.6099884016 4445779.2978176214 522548.42027152242 8178763.7170453854 4477347.1949003479 466409.45847817068 8003567.3756999271 4467917.5732597765 644316.59748778364 8244163.051758212 4636773.6687620562 712925.82708003093 8072399.6099884016 4445779.2978176214 522548.42027152242 8413803.270045355 4467133.3723066011 181841.20906879351 8396470.6408932526 4460657.7232851041 188316.89120939857 8408039.378573278 4472897.2565660635 199885.65893938526 8402234.4977237787 4466421.5319897207 193410.01964273892 8390665.6240404546 4454182.1445380589 181841.29349110782 8379138.0518849688 4454182.1584601933 194792.5669735703 8241480.4917871449 4379665.6189968986 199885.6586195014 8097129.0176195167 4298864.667663035 199885.6314085481 8383617.4857767234 4490971.9533559037 263602.24776894681 8383882.1018185923 4475430.5533557227 232111.1717947796 8356554.9252030076 4467681.0779111283 247259.06196732356 8283085.8197234105 4465865.3426487716 326157.39242703631 8402275.5546350181 4478661.0986974631 217930.10031519903 8383617.4857767234 4490971.9533559037 263602.24776894681 8383882.1018185923 4475430.5533557227 232111.1717947796 8283085.8197234105 4465865.3426487716 326157.39242703631 8385815.3738186648 4465630.0795487948 210268.1640214675 8383882.1018185923 4475430.5533557227 232111.1717947796 8356554.9252030076 4467681.0779111283 247259.06196732356 8283085.8197234105 4465865.3426487716 326157.39242703631 8413803.270045355 4467133.3723066011 181841.20906879351 8396470.6408932526 4460657.7232851041 188316.89120939857 8408039.378573278 4472897.2565660635 199885.65893938526 8402275.5526095498 4467133.474190725 194792.57993396875 8383617.4857767234 4490971.9533559037 263602.24776894681 8356554.9252030076 4467681.0779111283 247259.06196732356 8283085.8197234105 4465865.3426487716 326157.39242703631 8238507.2635472016 4499997.7371838158 444750.35862899519 8390665.6500838287 4465709.7138327481 204978.81021941488 8390665.6240404546 4454182.1445380589 181841.29349110782 8097129.0176195167 4298864.667663035 199885.6314085481 7815119.9342175703 4132019.6323862514 181841.19425158994 8356554.9252030076 4467681.0779111283 247259.06196732356 8314124.3197413143 4420328.1047974555 199885.67295474291 8178763.7170453854 4477347.1949003479 466409.45847817068 8238507.2635472016 4499997.7371838158 444750.35862899519 8390665.6500838287 4465709.7138327481 204978.81021941488 8359967.5237452537 4453158.4579730136 214275.98602412565 8314124.3197413143 4420328.1047974555 199885.67295474291 8396470.6379614193 4590895.8947207602 449724.03065464646 8390665.6500838287 4465709.7138327481 204978.81021941488 8359967.5237452537 4453158.4579730136 214275.98602412565 8396470.6010449938 4527176.0024881447 321828.70828707673 8396470.6379614193 4590895.8947207602 449724.03065464646 8356554.9252030076 4467681.0779111283 247259.06196732356 8359967.5237452537 4453158.4579730136 214275.98602412565 8314124.3197413143 4420328.1047974555 199885.67295474291 8396470.6379614193 4590895.8947207602 449724.03065464646 8356554.9252030076 4467681.0779111283 247259.06196732356 8359967.5237452537 4453158.4579730136 214275.98602412565 8396470.6010449938 4527176.0024881447 321828.70828707673 8396470.6379614193 4590895.8947207602 449724.03065464646 8356554.9252030076 4467681.0779111283 247259.06196732356 8314124.3197413143 4420328.1047974555 199885.67295474291 8396470.6379614193 4590895.8947207602 449724.03065464646 8178763.7170453854 4477347.1949003479 466409.45847817068 8379138.0518849688 4454182.1584601933 194792.5669735703 8402275.5526095498 4467133.474190725 194792.57993396875 8238649.6604396859 4463868.4938062867 372073.58900174277 8271996.3736078301 4466421.6382962801 339733.00162069104 8396470.6379614193 4590895.8947207602 449724.03065464646 8178763.7170453854 4477347.1949003479 466409.45847817068 8238507.2635472016 4499997.7371838158 444750.35862899519 8244163.051758212 4636773.6687620562 712925.82708003093 8396470.6010449938 4527176.0024881447 321828.70828707673 8396470.6379614193 4590895.8947207602 449724.03065464646 8238507.2635472016 4499997.7371838158 444750.35862899519 8244163.051758212 4636773.6687620562 712925.82708003093 8413803.1457714718 4478661.0800230997 204978.80537308499 8390665.6500838287 4465709.7138327481 204978.81021941488 8396470.6379614193 4590895.8947207602 449724.03065464646 8413803.2286307607 4763968.1147409938 777632.41513413424 8356554.9252030076 4467681.0779111283 247259.06196732356 8359967.5237452537 4453158.4579730136 214275.98602412565 8314124.3197413143 4420328.1047974555 199885.67295474291 8124828.9759364752 4416080.5684669893 404034.1298444462 8379138.0518849688 4454182.1584601933 194792.5669735703 8314124.3197413143 4420328.1047974555 199885.67295474291 8241480.4917871449 4379665.6189968986 199885.6586195014 8124828.9759364752 4416080.5684669893 404034.1298444462 8379138.0518849688 4454182.1584601933 194792.5669735703 8385815.3738186648 4465630.0795487948 210268.1640214675 8402275.5526095498 4467133.474190725 194792.57993396875 8283085.8197234105 4465865.3426487716 326157.39242703631 8413803.1457714718 4478661.0800230997 204978.80537308499 8402275.5546350181 4478661.0986974631 217930.10031519903 8381299.4743071878 4488005.6790278191 260252.90337350071 8383882.1018185923 4475430.5533557227 232111.1717947796 8413803.1457714718 4478661.0800230997 204978.80537308499 8402275.5546350181 4478661.0986974631 217930.10031519903 8396470.6379614193 4590895.8947207602 449724.03065464646 8413803.2286307607 4763968.1147409938 777632.41513413424 8241480.4917871449 4379665.6189968986 199885.6586195014 8003567.3756999271 4467917.5732597765 644316.59748778364 7902636.2908228394 4276040.8565287339 372587.80985427403 8097129.0176195167 4298864.667663035 199885.6314085481 8413803.1457714718 4478661.0800230997 204978.80537308499 8402275.5546350181 4478661.0986974631 217930.10031519903 8381299.4743071878 4488005.6790278191 260252.90337350071 8396470.6010449938 4527176.0024881447 321828.70828707673 8402275.5546350181 4478661.0986974631 217930.10031519903 8383617.4857767234 4490971.9533559037 263602.24776894681 8381299.4743071878 4488005.6790278191 260252.90337350071 8396470.6010449938 4527176.0024881447 321828.70828707673 8413803.1457714718 4478661.0800230997 204978.80537308499 8402275.5546350181 4478661.0986974631 217930.10031519903 8396470.6010449938 4527176.0024881447 321828.70828707673 8396470.6379614193 4590895.8947207602 449724.03065464646 8402275.5546350181 4478661.0986974631 217930.10031519903 8402275.5526095498 4467133.474190725 194792.57993396875 8271996.3736078301 4466421.6382962801 339733.00162069104 8116968.6895651286 4467133.4884923873 515336.07190684357 8402275.5546350181 4478661.0986974631 217930.10031519903 8383617.4857767234 4490971.9533559037 263602.24776894681 8271996.3736078301 4466421.6382962801 339733.00162069104 8116968.6895651286 4467133.4884923873 515336.07190684357 8402275.5546350181 4478661.0986974631 217930.10031519903 8402275.5526095498 4467133.474190725 194792.57993396875 8283085.8197234105 4465865.3426487716 326157.39242703631 8238649.6604396859 4463868.4938062867 372073.58900174277 8402275.5546350181 4478661.0986974631 217930.10031519903 8383617.4857767234 4490971.9533559037 263602.24776894681 8283085.8197234105 4465865.3426487716 326157.39242703631 8238649.6604396859 4463868.4938062867 372073.58900174277 8402275.5546350181 4478661.0986974631 217930.10031519903 8402275.5526095498 4467133.474190725 194792.57993396875 8238649.6604396859 4463868.4938062867 372073.58900174277 8271996.3736078301 4466421.6382962801 339733.00162069104 8402275.5546350181 4478661.0986974631 217930.10031519903 8383617.4857767234 4490971.9533559037 263602.24776894681 8238649.6604396859 4463868.4938062867 372073.58900174277 8271996.3736078301 4466421.6382962801 339733.00162069104 8390665.6500838287 4465709.7138327481 204978.81021941488 8396470.6379614193 4590895.8947207602 449724.03065464646 8072399.6099884016 4445779.2978176214 522548.42027152242 8097129.0176195167 4298864.667663035 199885.6314085481 8314124.3197413143 4420328.1047974555 199885.67295474291 8178763.7170453854 4477347.1949003479 466409.45847817068 8241480.4917871449 4379665.6189968986 199885.6586195014 8238507.2635472016 4499997.7371838158 444750.35862899519 8390665.6500838287 4465709.7138327481 204978.81021941488 8396470.6379614193 4590895.8947207602 449724.03065464646 8241480.4917871449 4379665.6189968986 199885.6586195014 8097129.0176195167 4298864.667663035 199885.6314085481 8379138.0518849688 4454182.1584601933 194792.5669735703 8356554.9252030076 4467681.0779111283 247259.06196732356 8283085.8197234105 4465865.3426487716 326157.39242703631 8124828.9759364752 4416080.5684669893 404034.1298444462 8379138.0518849688 4454182.1584601933 194792.5669735703 8241480.4917871449 4379665.6189968986 199885.6586195014 7902636.2908228394 4276040.8565287339 372587.80985427403 8097129.0176195167 4298864.667663035 199885.6314085481 8379138.0518849688 4454182.1584601933 194792.5669735703 8241480.4917871449 4379665.6189968986 199885.6586195014 8124828.9759364752 4416080.5684669893 404034.1298444462 7902636.2908228394 4276040.8565287339 372587.80985427403 8379138.0518849688 4454182.1584601933 194792.5669735703 8359967.5237452537 4453158.4579730136 214275.98602412565 8314124.3197413143 4420328.1047974555 199885.67295474291 8124828.9759364752 4416080.5684669893 404034.1298444462 8385815.3738186648 4465630.0795487948 210268.1640214675 8402275.5546350181 4478661.0986974631 217930.10031519903 8402275.5526095498 4467133.474190725 194792.57993396875 8283085.8197234105 4465865.3426487716 326157.39242703631 8381299.4743071878 4488005.6790278191 260252.90337350071 8356554.9252030076 4467681.0779111283 247259.06196732356 8396470.6010449938 4527176.0024881447 321828.70828707673 8238507.2635472016 4499997.7371838158 444750.35862899519 8178763.7170453854 4477347.1949003479 466409.45847817068 8241480.4917871449 4379665.6189968986 199885.6586195014 8238507.2635472016 4499997.7371838158 444750.35862899519 8003567.3756999271 4467917.5732597765 644316.59748778364 8413803.270045355 4467133.3723066011 181841.20906879351 8408039.378573278 4472897.2565660635 199885.65893938526 8402234.4977237787 4466421.5319897207 193410.01964273892 8413803.1457714718 4478661.0800230997 204978.80537308499 8241480.4917871449 4379665.6189968986 199885.6586195014 8124828.9759364752 4416080.5684669893 404034.1298444462 8238507.2635472016 4499997.7371838158 444750.35862899519 8003567.3756999271 4467917.5732597765 644316.59748778364 8413803.270045355 4467133.3723066011 181841.20906879351 8396470.6408932526 4460657.7232851041 188316.89120939857 8402234.4977237787 4466421.5319897207 193410.01964273892 8390665.6240404546 4454182.1445380589 181841.29349110782 8402275.5546350181 4478661.0986974631 217930.10031519903 8383617.4857767234 4490971.9533559037 263602.24776894681 8396470.6010449938 4527176.0024881447 321828.70828707673 8244163.051758212 4636773.6687620562 712925.82708003093 8402275.5546350181 4478661.0986974631 217930.10031519903 8396470.6010449938 4527176.0024881447 321828.70828707673 8396470.6379614193 4590895.8947207602 449724.03065464646 8244163.051758212 4636773.6687620562 712925.82708003093 8314124.3197413143 4420328.1047974555 199885.67295474291 8241480.4917871449 4379665.6189968986 199885.6586195014 8124828.9759364752 4416080.5684669893 404034.1298444462 8238507.2635472016 4499997.7371838158 444750.35862899519 8413803.1457714718 4478661.0800230997 204978.80537308499 8390665.6500838287 4465709.7138327481 204978.81021941488 8381299.4743071878 4488005.6790278191 260252.90337350071 8383882.1018185923 4475430.5533557227 232111.1717947796 8383617.4857767234 4490971.9533559037 263602.24776894681 8396470.6010449938 4527176.0024881447 321828.70828707673 8271996.3736078301 4466421.6382962801 339733.00162069104 8244163.051758212 4636773.6687620562 712925.82708003093 8396470.6010449938 4527176.0024881447 321828.70828707673 8238507.2635472016 4499997.7371838158 444750.35862899519 8271996.3736078301 4466421.6382962801 339733.00162069104 8244163.051758212 4636773.6687620562 712925.82708003093 8413803.1457714718 4478661.0800230997 204978.80537308499 8390665.6500838287 4465709.7138327481 204978.81021941488 8381299.4743071878 4488005.6790278191 260252.90337350071 8396470.6010449938 4527176.0024881447 321828.70828707673 8396470.6408932526 4460657.7232851041 188316.89120939857 8408039.378573278 4472897.2565660635 199885.65893938526 8385815.3738186648 4465630.0795487948 210268.1640214675 8402275.5526095498 4467133.474190725 194792.57993396875 8408039.378573278 4472897.2565660635 199885.65893938526 8402234.4977237787 4466421.5319897207 193410.01964273892 8413803.1457714718 4478661.0800230997 204978.80537308499 8385815.3738186648 4465630.0795487948 210268.1640214675 8390665.6500838287 4465709.7138327481 204978.81021941488 8381299.4743071878 4488005.6790278191 260252.90337350071 8383882.1018185923 4475430.5533557227 232111.1717947796 8359967.5237452537 4453158.4579730136 214275.98602412565 8381299.4743071878 4488005.6790278191 260252.90337350071 8356554.9252030076 4467681.0779111283 247259.06196732356 8359967.5237452537 4453158.4579730136 214275.98602412565 8396470.6010449938 4527176.0024881447 321828.70828707673 8402275.5546350181 4478661.0986974631 217930.10031519903 8383617.4857767234 4490971.9533559037 263602.24776894681 8244163.051758212 4636773.6687620562 712925.82708003093 8116968.6895651286 4467133.4884923873 515336.07190684357 8390665.6500838287 4465709.7138327481 204978.81021941488 8381299.4743071878 4488005.6790278191 260252.90337350071 8359967.5237452537 4453158.4579730136 214275.98602412565 8396470.6010449938 4527176.0024881447 321828.70828707673 8379138.0518849688 4454182.1584601933 194792.5669735703 8402275.5526095498 4467133.474190725 194792.57993396875 8283085.8197234105 4465865.3426487716 326157.39242703631 8238649.6604396859 4463868.4938062867 372073.58900174277 8383617.4857767234 4490971.9533559037 263602.24776894681 8381299.4743071878 4488005.6790278191 260252.90337350071 8356554.9252030076 4467681.0779111283 247259.06196732356 8238507.2635472016 4499997.7371838158 444750.35862899519 8396470.6408932526 4460657.7232851041 188316.89120939857 8402234.4977237787 4466421.5319897207 193410.01964273892 8390665.6240404546 4454182.1445380589 181841.29349110782 8385815.3738186648 4465630.0795487948 210268.1640214675 8413803.1457714718 4478661.0800230997 204978.80537308499 8390665.6500838287 4465709.7138327481 204978.81021941488 8396470.6010449938 4527176.0024881447 321828.70828707673 8396470.6379614193 4590895.8947207602 449724.03065464646 8390665.6500838287 4465709.7138327481 204978.81021941488 8314124.3197413143 4420328.1047974555 199885.67295474291 8396470.6379614193 4590895.8947207602 449724.03065464646 8241480.4917871449 4379665.6189968986 199885.6586195014 8379138.0518849688 4454182.1584601933 194792.5669735703 8402275.5526095498 4467133.474190725 194792.57993396875 8271996.3736078301 4466421.6382962801 339733.00162069104 8116968.6895651286 4467133.4884923873 515336.07190684357 8356554.9252030076 4467681.0779111283 247259.06196732356 8314124.3197413143 4420328.1047974555 199885.67295474291 8124828.9759364752 4416080.5684669893 404034.1298444462 8238507.2635472016 4499997.7371838158 444750.35862899519 8314124.3197413143 4420328.1047974555 199885.67295474291 8396470.6379614193 4590895.8947207602 449724.03065464646 8178763.7170453854 4477347.1949003479 466409.45847817068 8241480.4917871449 4379665.6189968986 199885.6586195014 8383617.4857767234 4490971.9533559037 263602.24776894681 8396470.6010449938 4527176.0024881447 321828.70828707673 8238507.2635472016 4499997.7371838158 444750.35862899519 8271996.3736078301 4466421.6382962801 339733.00162069104 8379138.0518849688 4454182.1584601933 194792.5669735703 8385815.3738186648 4465630.0795487948 210268.1640214675 8356554.9252030076 4467681.0779111283 247259.06196732356 8283085.8197234105 4465865.3426487716 326157.39242703631 8383617.4857767234 4490971.9533559037 263602.24776894681 8381299.4743071878 4488005.6790278191 260252.90337350071 8396470.6010449938 4527176.0024881447 321828.70828707673 8238507.2635472016 4499997.7371838158 444750.35862899519 8379138.0518849688 4454182.1584601933 194792.5669735703 8385815.3738186648 4465630.0795487948 210268.1640214675 8356554.9252030076 4467681.0779111283 247259.06196732356 8359967.5237452537 4453158.4579730136 214275.98602412565 8390665.6500838287 4465709.7138327481 204978.81021941488 8390665.6240404546 4454182.1445380589 181841.29349110782 8241480.4917871449 4379665.6189968986 199885.6586195014 8097129.0176195167 4298864.667663035 199885.6314085481 8396470.6408932526 4460657.7232851041 188316.89120939857 8408039.378573278 4472897.2565660635 199885.65893938526 8402234.4977237787 4466421.5319897207 193410.01964273892 8385815.3738186648 4465630.0795487948 210268.1640214675 8413803.1457714718 4478661.0800230997 204978.80537308499 8385815.3738186648 4465630.0795487948 210268.1640214675 8402275.5546350181 4478661.0986974631 217930.10031519903 8383882.1018185923 4475430.5533557227 232111.1717947796 8402234.4977237787 4466421.5319897207 193410.01964273892 8413803.1457714718 4478661.0800230997 204978.80537308499 8390665.6500838287 4465709.7138327481 204978.81021941488 8385815.3738186648 4465630.0795487948 210268.1640214675 8413803.1457714718 4478661.0800230997 204978.80537308499 8390665.6500838287 4465709.7138327481 204978.81021941488 8385815.3738186648 4465630.0795487948 210268.1640214675 8383882.1018185923 4475430.5533557227 232111.1717947796 8408039.378573278 4472897.2565660635 199885.65893938526 8413803.1457714718 4478661.0800230997 204978.80537308499 8385815.3738186648 4465630.0795487948 210268.1640214675 8402275.5546350181 4478661.0986974631 217930.10031519903 8390665.6500838287 4465709.7138327481 204978.81021941488 8385815.3738186648 4465630.0795487948 210268.1640214675 8383882.1018185923 447543