<?xml version="1.0"?>
<VTKFile type="UnstructuredGrid" version="0.1" byte_order="LittleEndian">
<UnstructuredGrid>
<Piece NumberOfPoints="23284" NumberOfCells="5821">
<Points>
<DataArray type="Float64" NumberOfComponents="3" format="ascii">
0.0038256098144006869 0.0041400759042262009 0.0039854622984236152 0.0050000000000000001 0.0050000000000000001 0 0.007850875913509971 0.005381679503114206 0.0037846524567980611 0.01459658547112015 0.02963818693411439 0.01348159639352434 0 0 0.0050000000000000001 0 0.0050000000000000001 0.0050000000000000001 0.0025000000000000001 0.0025000000000000001 0.067187500000176273 0 0 0.12937500000035251 0.0025000000000000001 0.0025000000000000001 0.035993247487525602 0.01335482532982827 0.061921935510367468 0.031596396334779613 0.053495808280144469 0.082973914578683722 0.047312437411078337 0 0.0736402080526046 0.073773792303481078 0.056489871231288402 0.0025000000000000001 0.0025000000000000001 0.045799116620837459 0.028040759187074001 0.036821396352863953 0.0025000000000000001 0.0025000000000000001 0.035993247487525602 0.0025000000000000001 0.0025000000000000001 0.067187500000176273 0 0.0050000000000000001 0.0050000000000000001 0.0095042730786282278 0.0082759167994670979 0.0082480707199308924 0.0045817963841059857 0.0043364158334714669 0.009473343555270677 0.01335482532982827 0.061921935510367468 0.031596396334779613 0.045799116620837459 0.028040759187074001 0.036821396352863953 0.0025000000000000001 0.0025000000000000001 0.035993247487525602 0.053495808280144469 0.082973914578683722 0.047312437411078337 0.0025000000000000001 0.0025000000000000001 0.067187500000176273 0.056489871231288402 0.0025000000000000001 0.0025000000000000001 0.045799116620837459 0.028040759187074001 0.036821396352863953 0.073626545880309466 0 0.073777028331958816 0.0025000000000000001 0.0025000000000000001 0.067187500000176273 0.045799116620837459 0.028040759187074001 0.036821396352863953 0.053495808280144469 0.082973914578683722 0.047312437411078337 0.073626545880309466 0 0.073777028331958816 0.0025000000000000001 0.0025000000000000001 0.067187500000176273 0.056489871231288402 0.0025000000000000001 0.0025000000000000001 0.045799116620837459 0.028040759187074001 0.036821396352863953 0.073580292400886219 0.073580292401008413 0 0.073626545880309466 0 0.073777028331958816 0.045799116620837459 0.028040759187074001 0.036821396352863953 0.053495808280144469 0.082973914578683722 0.047312437411078337 0.073580292400886219 0.073580292401008413 0 0.073626545880309466 0 0.073777028331958816 0 0 0 0 0.0025000000000000001 0.0025000000000000001 0.0025000000000000001 0.0025000000000000001 0 0.0025000000000000001 0 0.0025000000000000001 0 0 0.0050000000000000001 0 0.0050000000000000001 0.0050000000000000001 0.0025000000000000001 0.0025000000000000001 0.035993247487525602 0.0025000000000000001 0.0025000000000000001 0.067187500000176273 0.010477667344183201 0.01284643002126089 0.00012275481760709659 0.007850875913509971 0.005381679503114206 0.0037846524567980611 0.0095042730786282278 0.0082759167994670979 0.0082480707199308924 0.01459658547112015 0.02963818693411439 0.01348159639352434 0.0050000000000000001 0.0050000000000000001 0 0.010477667344183201 0.01284643002126089 0.00012275481760709659 0.007850875913509971 0.005381679503114206 0.0037846524567980611 0.01459658547112015 0.02963818693411439 0.01348159639352434 0.0038256098144006869 0.0041400759042262009 0.0039854622984236152 0.007850875913509971 0.005381679503114206 0.0037846524567980611 0.0095042730786282278 0.0082759167994670979 0.0082480707199308924 0.01459658547112015 0.02963818693411439 0.01348159639352434 0 0 0 0 0.0025000000000000001 0.0025000000000000001 0.0025000000000000001 0.0025000000000000001 0 0 0.0050000000000000001 0 0.010477667344183201 0.01284643002126089 0.00012275481760709659 0.0095042730786282278 0.0082759167994670979 0.0082480707199308924 0.01459658547112015 0.02963818693411439 0.01348159639352434 0.034373062133854368 0.040091712813656893 0.017906843810535381 0.0050000000000000001 0 0.0050000000000000001 0 0 0.0050000000000000001 0.0025000000000000001 0.0025000000000000001 0.067187500000176273 0 0 0.12937500000035251 0.0095042730786282278 0.0082759167994670979 0.0082480707199308924 0.0025000000000000001 0.0025000000000000001 0.02029496691504501 0.045799116620837459 0.028040759187074001 0.036821396352863953 0.034373062133854368 0.040091712813656893 0.017906843810535381 0.0050000000000000001 0 0.0050000000000000001 0.0045817963841059857 0.0043364158334714669 0.009473343555270677 0.0025000000000000001 0.0025000000000000001 0.02029496691504501 0.056489871231288402 0.0025000000000000001 0.0025000000000000001 0.0050000000000000001 0 0.0050000000000000001 0.0045817963841059857 0.0043364158334714669 0.009473343555270677 0.028851790063782669 0.0025000000000000001 0.0025000000000000001 0.056489871231288402 0.0025000000000000001 0.0025000000000000001 0.0095042730786282278 0.0082759167994670979 0.0082480707199308924 0.0045817963841059857 0.0043364158334714669 0.009473343555270677 0.0025000000000000001 0.0025000000000000001 0.02029496691504501 0.056489871231288402 0.0025000000000000001 0.0025000000000000001 0.0095042730786282278 0.0082759167994670979 0.0082480707199308924 0.0045817963841059857 0.0043364158334714669 0.009473343555270677 0.028851790063782669 0.0025000000000000001 0.0025000000000000001 0.056489871231288402 0.0025000000000000001 0.0025000000000000001 0.0095042730786282278 0.0082759167994670979 0.0082480707199308924 0.0025000000000000001 0.0025000000000000001 0.02029496691504501 0.056489871231288402 0.0025000000000000001 0.0025000000000000001 0.045799116620837459 0.028040759187074001 0.036821396352863953 0 0.0050000000000000001 0.0050000000000000001 0 0.0050000000000000001 0 0.016153278899017791 0.044583689206717327 0.01563807923371947 0.0025000000000000001 0.056489871231288402 0.0025000000000000001 0.056489871231288402 0.0025000000000000001 0.0025000000000000001 0.045799116620837459 0.028040759187074001 0.036821396352863953 0.034373062133854368 0.040091712813656893 0.017906843810535381 0.073580292400886219 0.073580292401008413 0 0.028851790063782669 0.0025000000000000001 0.0025000000000000001 0.056489871231288402 0.0025000000000000001 0.0025000000000000001 0.034373062133854368 0.040091712813656893 0.017906843810535381 0.073580292400886219 0.073580292401008413 0 0.0050000000000000001 0 0 0.0050000000000000001 0 0.0050000000000000001 0.056489871231288402 0.0025000000000000001 0.0025000000000000001 0.128749999999761 0 0 0.0095042730786282278 0.0082759167994670979 0.0082480707199308924 0.0045817963841059857 0.0043364158334714669 0.009473343555270677 0.0025000000000000001 0.0025000000000000001 0.02029496691504501 0.01335482532982827 0.061921935510367468 0.031596396334779613 0 0.0050000000000000001 0.0050000000000000001 0.0025000000000000001 0.0025000000000000001 0.02029496691504501 0.0025000000000000001 0.0025000000000000001 0.035993247487525602 0.01335482532982827 0.061921935510367468 0.031596396334779613 0 0.0050000000000000001 0.0050000000000000001 0.0038256098144006869 0.0041400759042262009 0.0039854622984236152 0 0.0050000000000000001 0 0.01459658547112015 0.02963818693411439 0.01348159639352434 0.0050000000000000001 0 0 0.0050000000000000001 0.0050000000000000001 0 0.013289992014046129 0.0065291354129584592 0.0037710740372293499 0.007850875913509971 0.005381679503114206 0.0037846524567980611 0.0050000000000000001 0 0 0.0050000000000000001 0.0050000000000000001 0 0.056489871231288402 0.0025000000000000001 0.0025000000000000001 0.128749999999761 0 0 0.0025000000000000001 0.0025000000000000001 0.035993247487525602 0.053495808280144469 0.082973914578683722 0.047312437411078337 0 0.0736402080526046 0.073773792303481078 0.0025000000000000001 0.0025000000000000001 0.067187500000176273 0.0050000000000000001 0 0 0.0050000000000000001 0.0050000000000000001 0 0.013289992014046129 0.0065291354129584592 0.0037710740372293499 0.028851790063782669 0.0025000000000000001 0.0025000000000000001 0.0050000000000000001 0.0050000000000000001 0 0.010477667344183201 0.01284643002126089 0.00012275481760709659 0.013289992014046129 0.0065291354129584592 0.0037710740372293499 0.028851790063782669 0.0025000000000000001 0.0025000000000000001 0.0050000000000000001 0 0 0.0050000000000000001 0.0050000000000000001 0 0.028851790063782669 0.0025000000000000001 0.0025000000000000001 0.056489871231288402 0.0025000000000000001 0.0025000000000000001 0.0050000000000000001 0.0050000000000000001 0 0 0.0050000000000000001 0 0.0025000000000000001 0.056489871231288402 0.0025000000000000001 0 0.12875000000032791 0 0.0050000000000000001 0.0050000000000000001 0 0.010477667344183201 0.01284643002126089 0.00012275481760709659 0.0025000000000000001 0.056489871231288402 0.0025000000000000001 0 0.12875000000032791 0 0.0050000000000000001 0.0050000000000000001 0 0 0.0050000000000000001 0 0.01459658547112015 0.02963818693411439 0.01348159639352434 0.016153278899017791 0.044583689206717327 0.01563807923371947 0.0050000000000000001 0.0050000000000000001 0 0.010477667344183201 0.01284643002126089 0.00012275481760709659 0.01459658547112015 0.02963818693411439 0.01348159639352434 0.016153278899017791 0.044583689206717327 0.01563807923371947 0.0050000000000000001 0.0050000000000000001 0 0 0.0050000000000000001 0 0.016153278899017791 0.044583689206717327 0.01563807923371947 0.0025000000000000001 0.056489871231288402 0.0025000000000000001 0.0050000000000000001 0.0050000000000000001 0 0.010477667344183201 0.01284643002126089 0.00012275481760709659 0.016153278899017791 0.044583689206717327 0.01563807923371947 0.0025000000000000001 0.056489871231288402 0.0025000000000000001 0.0050000000000000001 0 0.0050000000000000001 0.056489871231288402 0.0025000000000000001 0.0025000000000000001 0.073626545880309466 0 0.073777028331958816 0.0025000000000000001 0.0025000000000000001 0.067187500000176273 0.0025000000000000001 0.0025000000000000001 0.02029496691504501 0.045799116620837459 0.028040759187074001 0.036821396352863953 0
[...]
<PointData Scalars="" Vectors="displacement," Tensors="">
<DataArray type="Float64" Name="displacement" NumberOfComponents="3" format="ascii">
116814111.66716036 49899005.272712529 25754041.230471864 116977476.38555111 50012177.539716743 25826598.301094104 116774438.81031424 50063261.288712353 25974389.44444751 115323605.23783581 50171810.765305527 26712135.196397185 116929283.56336208 49729209.822220378 25495437.719507162 116729396.95956795 49729209.889691748 25578518.59299494 113743843.84593022 48795834.981071778 25661017.880112443 110758290.63676393 47662573.224998921 25495437.031643894 115291578.61055098 49314164.002412856 25661018.08781749 113134203.76471511 49821170.073243782 27186957.411880132 111512834.75359614 51164758.015154876 29528396.028234869 110573064.36286896 48586453.191912815 26719057.007538445 116953379.63904472 52029063.936708659 28339779.137827981 114229437.87250134 51031385.990195088 28233736.842456963 115291578.61055098 49314164.002412856 25661018.08781749 113743843.84593022 48795834.981071778 25661017.880112443 116729396.95956795 49729209.889691748 25578518.59299494 116437278.10032605 50055194.74162256 26104515.554237302 116533975.81335197 49838047.889439419 25794822.683516987 113134203.76471511 49821170.073243782 27186957.411880132 114229437.87250134 51031385.990195088 28233736.842456963 115291578.61055098 49314164.002412856 25661018.08781749 111512834.75359614 51164758.015154876 29528396.028234869 113743843.84593022 48795834.981071778 25661017.880112443 116953379.63904472 52029063.936708659 28339779.137827981 114229437.87250134 51031385.990195088 28233736.842456963 113516840.21541581 51529789.994548634 29148491.787475277 113743843.84593022 48795834.981071778 25661017.880112443 114229437.87250134 51031385.990195088 28233736.842456963 111512834.75359614 51164758.015154876 29528396.028234869 113516840.21541581 51529789.994548634 29148491.787475277 113743843.84593022 48795834.981071778 25661017.880112443 116953379.63904472 52029063.936708659 28339779.137827981 114229437.87250134 51031385.990195088 28233736.842456963 114235820.80920163 52753834.174606152 30368821.610180613 113516840.21541581 51529789.994548634 29148491.787475277 114229437.87250134 51031385.990195088 28233736.842456963 111512834.75359614 51164758.015154876 29528396.028234869 114235820.80920163 52753834.174606152 30368821.610180613 113516840.21541581 51529789.994548634 29148491.787475277 117177363.54186113 49812290.648233831 25495437.773988515 116953380.3368383 49770750.047724359 25536978.240850974 117077419.98675545 49912234.085755512 25661017.942774355 117053323.73873317 49870693.514503345 25619477.688752674 116929283.56336208 49729209.822220378 25495437.719507162 116729396.95956795 49729209.889691748 25578518.59299494 115291578.61055098 49314164.002412856 25661018.08781749 113743843.84593022 48795834.981071778 25661017.880112443 116657706.63509163 50229120.338714056 26228756.056174789 116774438.81031424 50063261.288712353 25974389.44444751 116437278.10032605 50055194.74162256 26104515.554237302 115323605.23783581 50171810.765305527 26712135.196397185 116977476.38555111 50012177.539716743 25826598.301094104 116657706.63509163 50229120.338714056 26228756.056174789 116774438.81031424 50063261.288712353 25974389.44444751 115323605.23783581 50171810.765305527 26712135.196397185 116814111.66716036 49899005.272712529 25754041.230471864 116774438.81031424 50063261.288712353 25974389.44444751 116437278.10032605 50055194.74162256 26104515.554237302 115323605.23783581 50171810.765305527 26712135.196397185 117177363.54186113 49812290.648233831 25495437.773988515 116953380.3368383 49770750.047724359 25536978.240850974 117077419.98675545 49912234.085755512 25661017.942774355 116977476.68436207 49812290.750269301 25578518.52988483 116657706.63509163 50229120.338714056 26228756.056174789 116437278.10032605 50055194.74162256 26104515.554237302 115323605.23783581 50171810.765305527 26712135.196397185 114686138.05105776 50888890.608370341 27867062.494391233 116929283.5143351 49929096.61097008 25743517.74042264 116929283.56336208 49729209.822220378 25495437.719507162 113743843.84593022 48795834.981071778 25661017.880112443 110758290.63676393 47662573.224998921 25495437.031643894 116437278.10032605 50055194.74162256 26104515.554237302 116070464.83553627 49575009.225645006 25661018.081246447 114229437.87250134 51031385.990195088 28233736.842456963 114686138.05105776 50888890.608370341 27867062.494391233 116929283.5143351 49929096.61097008 25743517.74042264 116533975.81335197 49838047.889439419 25794822.683516987 116070464.83553627 49575009.225645006 25661018.081246447 116953379.63904472 52029063.936708659 28339779.137827981 116929283.5143351 49929096.61097008 25743517.74042264 116533975.81335197 49838047.889439419 25794822.683516987 116953379.66618463 50924167.555924371 26968488.117326982 116953379.63904472 52029063.936708659 28339779.137827981 116437278.10032605 50055194.74162256 26104515.554237302 116533975.81335197 49838047.889439419 25794822.683516987 116070464.83553627 49575009.225645006 25661018.081246447 116953379.63904472 52029063.936708659 28339779.137827981 116437278.10032605 50055194.74162256 26104515.554237302 116533975.81335197 49838047.889439419 25794822.683516987 116953379.66618463 50924167.555924371 26968488.117326982 116953379.63904472 52029063.936708659 28339779.137827981 116437278.10032605 50055194.74162256 26104515.554237302 116070464.83553627 49575009.225645006 25661018.081246447 116953379.63904472 52029063.936708659 28339779.137827981 114229437.87250134 51031385.990195088 28233736.842456963 116729396.95956795 49729209.889691748 25578518.59299494 116977476.68436207 49812290.750269301 25578518.52988483 114619128.1464792 50198210.964474984 27037709.537108369 114795010.23891076 49870694.269493654 26558124.072139911 116953379.63904472 52029063.936708659 28339779.137827981 114229437.87250134 51031385.990195088 28233736.842456963 114686138.05105776 50888890.608370341 27867062.494391233 114235820.80920163 52753834.174606152 30368821.610180613 116953379.66618463 50924167.555924371 26968488.117326982 116953379.63904472 52029063.936708659 28339779.137827981 114686138.05105776 50888890.608370341 27867062.494391233 114235820.80920163 52753834.174606152 30368821.610180613 117177363.23020546 50012177.390565924 25743517.55078911 116929283.5143351 49929096.61097008 25743517.74042264 116953379.63904472 52029063.936708659 28339779.137827981 117177362.3196511 54959370.422715969 31883496.887400199 116437278.10032605 50055194.74162256 26104515.554237302 116533975.81335197 49838047.889439419 25794822.683516987 116070464.83553627 49575009.225645006 25661018.081246447 113134203.76471511 49821170.073243782 27186957.411880132 116729396.95956795 49729209.889691748 25578518.59299494 116070464.83553627 49575009.225645006 25661018.081246447 115291578.61055098 49314164.002412856 25661018.08781749 113134203.76471511 49821170.073243782 27186957.411880132 116729396.95956795 49729209.889691748 25578518.59299494 116814111.66716036 49899005.272712529 25754041.230471864 116977476.68436207 49812290.750269301 25578518.52988483 115323605.23783581 50171810.765305527 26712135.196397185 117177363.23020546 50012177.390565924 25743517.55078911 116977476.38555111 50012177.539716743 25826598.301094104 116729240.2505946 50280928.178570315 26263322.950960267 116774438.81031424 50063261.288712353 25974389.44444751 117177363.23020546 50012177.390565924 25743517.55078911 116977476.38555111 50012177.539716743 25826598.301094104 116953379.63904472 52029063.936708659 28339779.137827981 117177362.3196511 54959370.422715969 31883496.887400199 115291578.61055098 49314164.002412856 25661018.08781749 111512834.75359614 51164758.015154876 29528396.028234869 110573064.36286896 48586453.191912815 26719057.007538445 113743843.84593022 48795834.981071778 25661017.880112443 117177363.23020546 50012177.390565924 25743517.55078911 116977476.38555111 50012177.539716743 25826598.301094104 116729240.2505946 50280928.178570315 26263322.950960267 116953379.66618463 50924167.555924371 26968488.117326982 116977476.38555111 50012177.539716743 25826598.301094104 116657706.63509163 50229120.338714056 26228756.056174789 116729240.2505946 50280928.178570315 26263322.950960267 116953379.66618463 50924167.555924371 26968488.117326982 117177363.23020546 50012177.390565924 25743517.55078911 116977476.38555111 50012177.539716743 25826598.301094104 116953379.66618463 50924167.555924371 26968488.117326982 116953379.63904472 52029063.936708659 28339779.137827981 116977476.38555111 50012177.539716743 25826598.301094104 116977476.68436207 49812290.750269301 25578518.52988483 114795010.23891076 49870694.269493654 26558124.072139911 112030284.91168952 49812292.367302552 27634772.457507044 116977476.38555111 50012177.539716743 25826598.301094104 116657706.63509163 50229120.338714056 26228756.056174789 114795010.23891076 49870694.269493654 26558124.072139911 112030284.91168952 49812292.367302552 27634772.457507044 116977476.38555111 50012177.539716743 25826598.301094104 116977476.68436207 49812290.750269301 25578518.52988483 115323605.23783581 50171810.765305527 26712135.196397185 114619128.1464792 50198210.964474984 27037709.537108369 116977476.38555111 50012177.539716743 25826598.301094104 116657706.63509163 50229120.338714056 26228756.056174789 115323605.23783581 50171810.765305527 26712135.196397185 114619128.1464792 50198210.964474984 27037709.537108369 116977476.38555111 50012177.539716743 25826598.301094104 116977476.68436207 49812290.750269301 25578518.52988483 114619128.1464792 50198210.964474984 27037709.537108369 114795010.23891076 49870694.269493654 26558124.072139911 116977476.38555111 50012177.539716743 25826598.301094104 116657706.63509163 50229120.338714056 26228756.056174789 114619128.1464792 50198210.964474984 27037709.537108369 114795010.23891076 49870694.269493654 26558124.072139911 116929283.5143351 49929096.61097008 25743517.74042264 116953379.63904472 52029063.936708659 28339779.137827981 113516840.21541581 51529789.994548634 29148491.787475277 113743843.84593022 48795834.981071778 25661017.880112443 116070464.83553627 49575009.225645006 25661018.081246447 114229437.87250134 51031385.990195088 28233736.842456963 115291578.61055098 49314164.002412856 25661018.08781749 114686138.05105776 50888890.608370341 27867062.494391233 116929283.5143351 49929096.61097008 25743517.74042264 116953379.63904472 52029063.936708659 28339779.137827981 115291578.61055098 49314164.002412856 25661018.08781749 113743843.84593022 48795834.981071778 25661017.880112443 116729396.95956795 49729209.889691748 25578518.59299494 116437278.10032605 50055194.74162256 26104515.554237302 115323605.23783581 50171810.765305527 26712135.196397185 113134203.76471511 49821170.073243782 27186957.411880132 116729396.95956795 49729209.889691748 25578518.59299494 115291578.61055098 49314164.002412856 25661018.08781749 110573064.36286896 48586453.191912815 26719057.007538445 113743843.84593022 48795834.981071778 25661017.880112443 116729396.95956795 49729209.889691748 25578518.59299494 115291578.61055098 49314164.002412856 25661018.08781749 113134203.76471511 49821170.073243782 27186957.411880132 110573064.36286896 48586453.191912815 26719057.007538445 116729396.95956795 49729209.889691748 25578518.59299494 116533975.81335197 49838047.889439419 25794822.683516987 116070464.83553627 49575009.225645006 25661018.081246447 113134203.76471511 49821170.073243782 27186957.411880132 116814111.66716036 49899005.272712529 25754041.230471864 116977476.38555111 50012177.539716743 25826598.301094104 116977476.68436207 49812290.750269301 25578518.52988483 115323605.23783581 50171810.765305527 26712135.196397185 116729240.2505946 50280928.178570315 26263322.950960267 116437278.10032605 50055194.74162256 26104515.554237302 116953379.66618463 50924167.555924371 26968488.117326982 114686138.05105776 50888890.608370341 27867062.494391233 114229437.87250134 51031385.990195088 28233736.842456963 115291578.61055098 49314164.002412856 25661018.08781749 114686138.05105776 50888890.608370341 27867062.494391233 111512834.75359614 51164758.015154876 29528396.028234869 117177363.54186113 49812290.648233831 25495437.773988515 117077419.98675545 49912234.085755512 25661017.942774355 117053323.73873317 49870693.514503345 25619477.688752674 117177363.23020546 50012177.390565924 25743517.55078911 115291578.61055098 49314164.002412856 25661018.08781749 113134203.76471511 49821170.073243782 27186957.411880132 114686138.05105776 50888890.608370341 27867062.494391233 111512834.75359614 51164758.015154876 29528396.028234869 117177363.54186113 49812290.648233831 25495437.773988515 116953380.3368383 49770750.047724359 25536978.240850974 117053323.73873317 49870693.514503345 25619477.688752674 116929283.56336208 49729209.822220378 25495437.719507162 116977476.38555111 50012177.539716743 25826598.301094104 116657706.63509163 50229120.338714056 26228756.056174789 116953379.66618463 50924167.555924371 26968488.117326982 114235820.80920163 52753834.174606152 30368821.610180613 116977476.38555111 50012177.539716743 25826598.301094104 116953379.66618463 50924167.555924371 26968488.117326982 116953379.63904472 52029063.936708659 28339779.137827981 114235820.80920163 52753834.174606152 30368821.610180613 116070464.83553627 49575009.225645006 25661018.081246447 115291578.61055098 49314164.002412856 25661018.08781749 113134203.76471511 49821170.073243782 27186957.411880132 114686138.05105776 50888890.608370341 27867062.494391233 117177363.23020546 50012177.390565924 25743517.55078911 116929283.5143351 49929096.61097008 25743517.74042264 116729240.2505946 50280928.178570315 26263322.950960267 116774438.81031424 50063261.288712353 25974389.44444751 116657706.63509163 50229120.338714056 26228756.056174789 116953379.66618463 50924167.555924371 26968488.117326982 114795010.23891076 49870694.269493654 26558124.072139911 114235820.80920163 52753834.174606152 30368821.610180613 116953379.66618463 50924167.555924371 26968488.117326982 114686138.05105776 50888890.608370341 27867062.494391233 114795010.23891076 49870694.269493654 26558124.072139911 114235820.80920163 52753834.174606152 30368821.610180613 117177363.23020546 50012177.390565924 25743517.55078911 116929283.5143351 49929096.61097008 25743517.74042264 116729240.2505946 50280928.178570315 26263322.950960267 116953379.66618463 50924167.555924371 26968488.117326982 116953380.3368383 49770750.047724359 25536978.240850974 117077419.98675545 49912234.085755512 25661017.942774355 116814111.66716036 49899005.272712529 25754041.230471864 116977476.68436207 49812290.750269301 25578518.52988483 117077419.98675545 49912234.085755512 25661017.942774355 117053323.73873317 49870693.514503345 25619477.688752674 117177363.23020546 50012177.390565924 25743517.55078911 116814111.66716036 49899005.272712529 25754041.230471864 116929283.5143351 49929096.61097008 25743517.74042264 116729240.2505946 50280928.178570315 26263322.950960267 116774438.81031424 50063261.288712353 25974389.44444751 116533975.81335197 49838047.889439419 25794822.683516987 116729240.2505946 50280928.178570315 26263322.950960267 116437278.10032605 50055194.74162256 26104515.554237302 116533975.81335197 49838047.889439419 25794822.683516987 116953379.66618463 50924167.555924371 26968488.117326982 116977476.38555111 50012177.539716743 25826598.301094104 116657706.63509163 50229120.338714056 26228756.056174789 114235820.80920163 52753834.174606152 30368821.610180613 112030284.91168952 49812292.367302552 27634772.457507044 116929283.5143351 49929096.61097008 25743517.74042264 116729240.2505946 50280928.178570315 26263322.950960267 116533975.81335197 49838047.889439419 25794822.683516987 116953379.66618463 50924167.555924371 26968488.117326982 116729396.95956795 49729209.889691748 25578518.59299494 116977476.68436207 49812290.750269301 25578518.52988483 115323605.23783581 50171810.765305527 26712135.196397185 114619128.1464792 50198210.964474984 27037709.537108369 116657706.63509163 50229120.338714056 26228756.056174789 116729240.2505946 50280928.178570315 26263322.950960267 116437278.10032605 50055194.74162256 26104515.554237302 114686138.05105776 50888890.608370341 27867062.494391233 116953380.3368383 49770750.047724359 25536978.240850974 117053323.73873317 49870693.514503345 25619477.688752674 116929283.56336208 49729209.822220378 25495437.719507162 116814111.66716036 49899005.272712529 25754041.230471864 117177363.23020546 50012177.390565924 25743517.55078911 116929283.5143351 49929096.61097008 25743517.74042264 116953379.66618463 50924167.555924371 26968488.117326982 116953379.63904472 52029063.936708659 28339779.137827981 116929283.5143351 49929096.61097008 25743517.74042264 116070464.83553627 49575009.225645006 25661018.081246447 116953379.63904472 52029063.936708659 28339779.137827981 115291578.61055098 49314164.002412856 25661018.08781749 116729396.95956795 49729209.889691748 25578518.59299494 116977476.68436207 49812290.750269301 25578518.52988483 114795010.23891076 49870694.269493654 26558124.072139911 112030284.91168952 49812292.367302552 27634772.457507044 116437278.10032605 50055194.74162256 26104515.554237302 116070464.83553627 49575009.225645006 25661018.081246447 113134203.76471511 49821170.073243782 27186957.411880132 114686138.05105776 50888890.608370341 27867062.494391233 116070464.83553627 49575009.225645006 25661018.081246447 116953379.63904472 52029063.936708659 28339779.137827981 114229437.87250134 51031385.990195088 28233736.842456963 115291578.61055098 49314164.002412856 25661018.08781749 116657706.63509163 50229120.338714056 26228756.056174789 116953379.66618463 50924167.555924371 26968488.117326982 114686138.05105776 50888890.608370341 27867062.494391233 114795010.23891076 49870694.269493654 26558124.072139911 116729396.95956795 49729209.889691748 25578518.59299494 116814111.66716036 49899005.272712529 25754041.230471864 116437278.10032605 50055194.74162256 26104515.554237302 115323605.23783581 50171810.765305527 26712135.196397185 116657706.63509163 50229120.338714056 26228756.056174789 116729240.2505946 50280928.178570315 26263322.950960267 116953379.66618463 50924167.555924371 26968488.117326982 114686138.05105776 50888890.608370341 27867062.494391233 116729396.95956795 49729209.889691748 25578518.59299494 116814111.66716036 49899005.272712529 25754041.230471864 116437278.10032605 50055194.74162256 26104515.554237302 116533975.81335197 49838047.889439419 25794822.683516987 116929283.5143351 49929096.61097008 25743517.74042264 116929283.56336208 49729209.822220378 25495437.719507162 115291578.61055098 49314164.002412856 25661018.08781749 113743843.84593022 48795834.981071778 25661017.880112443 116953380.3368383 49770750.047724359 25536978.240850974 117077419.98675545 49912234.085755512 25661017.942774355 117053323.73873317 49870693.514503345 25619477.688752674 116814111.66716036 49899005.272712529 25754041.230471864 117177363.23020546 50012177.390565924 25743517.55078911 116814111.66716036 49899005.272712529 25754041.230471864 116977476.38555111 50012177.539716743 25826598.301094104 116774438.81031424 50063261.288712353 25974389.44444751 117053323.73873317 49870693.514503345 25619477.688752674 117177363.23020546 50012177.390565924 25743517.55078911 116929283.5143351 49929096.61097008 25743517.74042264 116814111.66716036 49899005.272712529 25754041.230471864 117177363.23020546 50012177.390565924 25743517.55078911 116929283.5143351 49929096.61097008 25743517.74042264 116814111.66716036 49899005.272712529 25754041.230471864 116774438.81031424 50063261.288712353 25974389.44444751 117077419.98675545 49912234.085755512 25661017.942774355 117177363.23020546 50012177.390565924 25743517.55078911 116814111.66716036 49899005.272712529 25754041.230471864 116977476.38555111 50012177.539716743 25826598.301094104 116929283.5143351 49929096.61097008 25743517.74042264 116814111.66716036 49899005.272712529 25754041.230471864 116774438.81031424 50063261.288712353 25974389.44444751 116