<?xml version="1.0"?>
<VTKFile type="UnstructuredGrid" version="0.1" byte_order="LittleEndian">
<UnstructuredGrid>
<Piece NumberOfPoints="23284" NumberOfCells="5821">
<Points>
<DataArray type="Float64" NumberOfComponents="3" format="ascii">
0.0038256098144006869 0.0041400759042262009 0.0039854622984236152 0.0050000000000000001 0.0050000000000000001 0 0.007850875913509971 0.005381679503114206 0.0037846524567980611 0.01459658547112015 0.02963818693411439 0.01348159639352434 0 0 0.0050000000000000001 0 0.0050000000000000001 0.0050000000000000001 0.0025000000000000001 0.0025000000000000001 0.067187500000176273 0 0 0.12937500000035251 0.0025000000000000001 0.0025000000000000001 0.035993247487525602 0.01335482532982827 0.061921935510367468 0.031596396334779613 0.053495808280144469 0.082973914578683722 0.047312437411078337 0 0.0736402080526046 0.073773792303481078 0.056489871231288402 0.0025000000000000001 0.0025000000000000001 0.045799116620837459 0.028040759187074001 0.036821396352863953 0.0025000000000000001 0.0025000000000000001 0.035993247487525602 0.0025000000000000001 0.0025000000000000001 0.067187500000176273 0 0.0050000000000000001 0.0050000000000000001 0.0095042730786282278 0.0082759167994670979 0.0082480707199308924 0.0045817963841059857 0.0043364158334714669 0.009473343555270677 0.01335482532982827 0.061921935510367468 0.031596396334779613 0.045799116620837459 0.028040759187074001 0.036821396352863953 0.0025000000000000001 0.0025000000000000001 0.035993247487525602 0.053495808280144469 0.082973914578683722 0.047312437411078337 0.0025000000000000001 0.0025000000000000001 0.067187500000176273 0.056489871231288402 0.0025000000000000001 0.0025000000000000001 0.045799116620837459 0.028040759187074001 0.036821396352863953 0.073626545880309466 0 0.073777028331958816 0.0025000000000000001 0.0025000000000000001 0.067187500000176273 0.045799116620837459 0.028040759187074001 0.036821396352863953 0.053495808280144469 0.082973914578683722 0.047312437411078337 0.073626545880309466 0 0.073777028331958816 0.0025000000000000001 0.0025000000000000001 0.067187500000176273 0.056489871231288402 0.0025000000000000001 0.0025000000000000001 0.045799116620837459 0.028040759187074001 0.036821396352863953 0.073580292400886219 0.073580292401008413 0 0.073626545880309466 0 0.073777028331958816 0.045799116620837459 0.028040759187074001 0.036821396352863953 0.053495808280144469 0.082973914578683722 0.047312437411078337 0.073580292400886219 0.073580292401008413 0 0.073626545880309466 0 0.073777028331958816 0 0 0 0 0.0025000000000000001 0.0025000000000000001 0.0025000000000000001 0.0025000000000000001 0 0.0025000000000000001 0 0.0025000000000000001 0 0 0.0050000000000000001 0 0.0050000000000000001 0.0050000000000000001 0.0025000000000000001 0.0025000000000000001 0.035993247487525602 0.0025000000000000001 0.0025000000000000001 0.067187500000176273 0.010477667344183201 0.01284643002126089 0.00012275481760709659 0.007850875913509971 0.005381679503114206 0.0037846524567980611 0.0095042730786282278 0.0082759167994670979 0.0082480707199308924 0.01459658547112015 0.02963818693411439 0.01348159639352434 0.0050000000000000001 0.0050000000000000001 0 0.010477667344183201 0.01284643002126089 0.00012275481760709659 0.007850875913509971 0.005381679503114206 0.0037846524567980611 0.01459658547112015 0.02963818693411439 0.01348159639352434 0.0038256098144006869 0.0041400759042262009 0.0039854622984236152 0.007850875913509971 0.005381679503114206 0.0037846524567980611 0.0095042730786282278 0.0082759167994670979 0.0082480707199308924 0.01459658547112015 0.02963818693411439 0.01348159639352434 0 0 0 0 0.0025000000000000001 0.0025000000000000001 0.0025000000000000001 0.0025000000000000001 0 0 0.0050000000000000001 0 0.010477667344183201 0.01284643002126089 0.00012275481760709659 0.0095042730786282278 0.0082759167994670979 0.0082480707199308924 0.01459658547112015 0.02963818693411439 0.01348159639352434 0.034373062133854368 0.040091712813656893 0.017906843810535381 0.0050000000000000001 0 0.0050000000000000001 0 0 0.0050000000000000001 0.0025000000000000001 0.0025000000000000001 0.067187500000176273 0 0 0.12937500000035251 0.0095042730786282278 0.0082759167994670979 0.0082480707199308924 0.0025000000000000001 0.0025000000000000001 0.02029496691504501 0.045799116620837459 0.028040759187074001 0.036821396352863953 0.034373062133854368 0.040091712813656893 0.017906843810535381 0.0050000000000000001 0 0.0050000000000000001 0.0045817963841059857 0.0043364158334714669 0.009473343555270677 0.0025000000000000001 0.0025000000000000001 0.02029496691504501 0.056489871231288402 0.0025000000000000001 0.0025000000000000001 0.0050000000000000001 0 0.0050000000000000001 0.0045817963841059857 0.0043364158334714669 0.009473343555270677 0.028851790063782669 0.0025000000000000001 0.0025000000000000001 0.056489871231288402 0.0025000000000000001 0.0025000000000000001 0.0095042730786282278 0.0082759167994670979 0.0082480707199308924 0.0045817963841059857 0.0043364158334714669 0.009473343555270677 0.0025000000000000001 0.0025000000000000001 0.02029496691504501 0.056489871231288402 0.0025000000000000001 0.0025000000000000001 0.0095042730786282278 0.0082759167994670979 0.0082480707199308924 0.0045817963841059857 0.0043364158334714669 0.009473343555270677 0.028851790063782669 0.0025000000000000001 0.0025000000000000001 0.056489871231288402 0.0025000000000000001 0.0025000000000000001 0.0095042730786282278 0.0082759167994670979 0.0082480707199308924 0.0025000000000000001 0.0025000000000000001 0.02029496691504501 0.056489871231288402 0.0025000000000000001 0.0025000000000000001 0.045799116620837459 0.028040759187074001 0.036821396352863953 0 0.0050000000000000001 0.0050000000000000001 0 0.0050000000000000001 0 0.016153278899017791 0.044583689206717327 0.01563807923371947 0.0025000000000000001 0.056489871231288402 0.0025000000000000001 0.056489871231288402 0.0025000000000000001 0.0025000000000000001 0.045799116620837459 0.028040759187074001 0.036821396352863953 0.034373062133854368 0.040091712813656893 0.017906843810535381 0.073580292400886219 0.073580292401008413 0 0.028851790063782669 0.0025000000000000001 0.0025000000000000001 0.056489871231288402 0.0025000000000000001 0.0025000000000000001 0.034373062133854368 0.040091712813656893 0.017906843810535381 0.073580292400886219 0.073580292401008413 0 0.0050000000000000001 0 0 0.0050000000000000001 0 0.0050000000000000001 0.056489871231288402 0.0025000000000000001 0.0025000000000000001 0.128749999999761 0 0 0.0095042730786282278 0.0082759167994670979 0.0082480707199308924 0.0045817963841059857 0.0043364158334714669 0.009473343555270677 0.0025000000000000001 0.0025000000000000001 0.02029496691504501 0.01335482532982827 0.061921935510367468 0.031596396334779613 0 0.0050000000000000001 0.0050000000000000001 0.0025000000000000001 0.0025000000000000001 0.02029496691504501 0.0025000000000000001 0.0025000000000000001 0.035993247487525602 0.01335482532982827 0.061921935510367468 0.031596396334779613 0 0.0050000000000000001 0.0050000000000000001 0.0038256098144006869 0.0041400759042262009 0.0039854622984236152 0 0.0050000000000000001 0 0.01459658547112015 0.02963818693411439 0.01348159639352434 0.0050000000000000001 0 0 0.0050000000000000001 0.0050000000000000001 0 0.013289992014046129 0.0065291354129584592 0.0037710740372293499 0.007850875913509971 0.005381679503114206 0.0037846524567980611 0.0050000000000000001 0 0 0.0050000000000000001 0.0050000000000000001 0 0.056489871231288402 0.0025000000000000001 0.0025000000000000001 0.128749999999761 0 0 0.0025000000000000001 0.0025000000000000001 0.035993247487525602 0.053495808280144469 0.082973914578683722 0.047312437411078337 0 0.0736402080526046 0.073773792303481078 0.0025000000000000001 0.0025000000000000001 0.067187500000176273 0.0050000000000000001 0 0 0.0050000000000000001 0.0050000000000000001 0 0.013289992014046129 0.0065291354129584592 0.0037710740372293499 0.028851790063782669 0.0025000000000000001 0.0025000000000000001 0.0050000000000000001 0.0050000000000000001 0 0.010477667344183201 0.01284643002126089 0.00012275481760709659 0.013289992014046129 0.0065291354129584592 0.0037710740372293499 0.028851790063782669 0.0025000000000000001 0.0025000000000000001 0.0050000000000000001 0 0 0.0050000000000000001 0.0050000000000000001 0 0.028851790063782669 0.0025000000000000001 0.0025000000000000001 0.056489871231288402 0.0025000000000000001 0.0025000000000000001 0.0050000000000000001 0.0050000000000000001 0 0 0.0050000000000000001 0 0.0025000000000000001 0.056489871231288402 0.0025000000000000001 0 0.12875000000032791 0 0.0050000000000000001 0.0050000000000000001 0 0.010477667344183201 0.01284643002126089 0.00012275481760709659 0.0025000000000000001 0.056489871231288402 0.0025000000000000001 0 0.12875000000032791 0 0.0050000000000000001 0.0050000000000000001 0 0 0.0050000000000000001 0 0.01459658547112015 0.02963818693411439 0.01348159639352434 0.016153278899017791 0.044583689206717327 0.01563807923371947 0.0050000000000000001 0.0050000000000000001 0 0.010477667344183201 0.01284643002126089 0.00012275481760709659 0.01459658547112015 0.02963818693411439 0.01348159639352434 0.016153278899017791 0.044583689206717327 0.01563807923371947 0.0050000000000000001 0.0050000000000000001 0 0 0.0050000000000000001 0 0.016153278899017791 0.044583689206717327 0.01563807923371947 0.0025000000000000001 0.056489871231288402 0.0025000000000000001 0.0050000000000000001 0.0050000000000000001 0 0.010477667344183201 0.01284643002126089 0.00012275481760709659 0.016153278899017791 0.044583689206717327 0.01563807923371947 0.0025000000000000001 0.056489871231288402 0.0025000000000000001 0.0050000000000000001 0 0.0050000000000000001 0.056489871231288402 0.0025000000000000001 0.0025000000000000001 0.073626545880309466 0 0.073777028331958816 0.0025000000000000001 0.0025000000000000001 0.067187500000176273 0.0025000000000000001 0.0025000000000000001 0.02029496691504501 0.045799116620837459 0.028040759187074001 0.036821396352863953 0
[...]
<PointData Scalars="" Vectors="displacement," Tensors="">
<DataArray type="Float64" Name="displacement" NumberOfComponents="3" format="ascii">
121898456.24987988 2504310.8604022819 756345.81087527436 122111864.80644609 2597765.6411680579 839395.02005634434 121825600.72682722 2785748.7402733215 1036072.4148347583 119467908.52313627 3228409.5765400492 1568911.484145287 122117725.92318328 2234453.1360677215 481942.77731848171 121768857.41313261 2234453.1316063455 496386.88323555223 117677126.76499578 2229238.9399320926 660667.88768703095 113585395.9211202 1875156.3008800643 481940.67916308995 119817103.90220912 2319353.4709767518 660668.40262585459 115972646.66361225 3089437.2865306172 1576986.1760763139 113425625.6084947 5844822.2044261862 4391539.6190247443 112261580.17100818 2035778.6608766129 694674.442389815 122114796.12365802 6183183.4610697124 4364463.4502560571 117978218.42895588 5338101.8799548587 3704841.9290572638 119817103.90220912 2319353.4709767518 660668.40262585459 117677126.76499578 2229238.9399320926 660667.88768703095 121768857.41313261 2234453.1316063455 496386.88323555223 121317461.51974694 2888218.4249910032 1157859.0172990793 121508279.42173935 2541219.2856122926 808788.5532689828 115972646.66361225 3089437.2865306172 1576986.1760763139 117978218.42895588 5338101.8799548587 3704841.9290572638 119817103.90220912 2319353.4709767518 660668.40262585459 113425625.6084947 5844822.2044261862 4391539.6190247443 117677126.76499578 2229238.9399320926 660667.88768703095 122114796.12365802 6183183.4610697124 4364463.4502560571 117978218.42895588 5338101.8799548587 3704841.9290572638 117399508.68077224 7172966.7780428017 5532844.793343123 117677126.76499578 2229238.9399320926 660667.88768703095 117978218.42895588 5338101.8799548587 3704841.9290572638 113425625.6084947 5844822.2044261862 4391539.6190247443 117399508.68077224 7172966.7780428017 5532844.793343123 117677126.76499578 2229238.9399320926 660667.88768703095 122114796.12365802 6183183.4610697124 4364463.4502560571 117978218.42895588 5338101.8799548587 3704841.9290572638 117326765.62318292 7382868.4411399858 5742232.1782134082 117399508.68077224 7172966.7780428017 5532844.793343123 117978218.42895588 5338101.8799548587 3704841.9290572638 113425625.6084947 5844822.2044261862 4391539.6190247443 117326765.62318292 7382868.4411399858 5742232.1782134082 117399508.68077224 7172966.7780428017 5532844.793343123 122460733.86627251 2248897.0104422262 481942.97408020427 122114795.57250142 2241675.1029066946 489164.90852333198 122286299.41939564 2423331.383296486 660668.88866698591 122289230.0017098 2416109.3780974043 653446.89054364956 122117725.92318328 2234453.1360677215 481942.77731848171 121768857.41313261 2234453.1316063455 496386.88323555223 119817103.90220912 2319353.4709767518 660668.40262585459 117677126.76499578 2229238.9399320926 660667.88768703095 121555969.34534158 2979608.3397046672 1237838.9160462481 121825600.72682722 2785748.7402733215 1036072.4148347583 121317461.51974694 2888218.4249910032 1157859.0172990793 119467908.52313627 3228409.5765400492 1568911.484145287 122111864.80644609 2597765.6411680579 839395.02005634434 121555969.34534158 2979608.3397046672 1237838.9160462481 121825600.72682722 2785748.7402733215 1036072.4148347583 119467908.52313627 3228409.5765400492 1568911.484145287 121898456.24987988 2504310.8604022819 756345.81087527436 121825600.72682722 2785748.7402733215 1036072.4148347583 121317461.51974694 2888218.4249910032 1157859.0172990793 119467908.52313627 3228409.5765400492 1568911.484145287 122460733.86627251 2248897.0104422262 481942.97408020427 122114795.57250142 2241675.1029066946 489164.90852333198 122286299.41939564 2423331.383296486 660668.88866698591 122111865.10629745 2248897.1226203698 496386.89273469109 121555969.34534158 2979608.3397046672 1237838.9160462481 121317461.51974694 2888218.4249910032 1157859.0172990793 119467908.52313627 3228409.5765400492 1568911.484145287 118434948.3128645 4595504.3162328489 2955808.7079598545 122117725.94975968 2583321.5040208604 824950.99766689271 122117725.92318328 2234453.1360677215 481942.77731848171 117677126.76499578 2229238.9399320926 660667.88768703095 113585395.9211202 1875156.3008800643 481940.67916308995 121317461.51974694 2888218.4249910032 1157859.0172990793 120894031.76794671 2364702.9258862273 660668.6639136814 117978218.42895588 5338101.8799548587 3704841.9290572638 118434948.3128645 4595504.3162328489 2955808.7079598545 122117725.94975968 2583321.5040208604 824950.99766689271 121508279.42173935 2541219.2856122926 808788.5532689828 120894031.76794671 2364702.9258862273 660668.6639136814 122114796.12365802 6183183.4610697124 4364463.4502560571 122117725.94975968 2583321.5040208604 824950.99766689271 121508279.42173935 2541219.2856122926 808788.5532689828 122114795.5169041 4254771.6767072007 2468445.3075150321 122114796.12365802 6183183.4610697124 4364463.4502560571 121317461.51974694 2888218.4249910032 1157859.0172990793 121508279.42173935 2541219.2856122926 808788.5532689828 120894031.76794671 2364702.9258862273 660668.6639136814 122114796.12365802 6183183.4610697124 4364463.4502560571 121317461.51974694 2888218.4249910032 1157859.0172990793 121508279.42173935 2541219.2856122926 808788.5532689828 122114795.5169041 4254771.6767072007 2468445.3075150321 122114796.12365802 6183183.4610697124 4364463.4502560571 121317461.51974694 2888218.4249910032 1157859.0172990793 120894031.76794671 2364702.9258862273 660668.6639136814 122114796.12365802 6183183.4610697124 4364463.4502560571 117978218.42895588 5338101.8799548587 3704841.9290572638 121768857.41313261 2234453.1316063455 496386.88323555223 122111865.10629745 2248897.1226203698 496386.89273469109 118277167.48465823 3330796.4567333716 1718877.9013917716 118347722.71490021 2416110.0180225405 816635.17339748447 122114796.12365802 6183183.4610697124 4364463.4502560571 117978218.42895588 5338101.8799548587 3704841.9290572638 118434948.3128645 4595504.3162328489 2955808.7079598545 117326765.62318292 7382868.4411399858 5742232.1782134082 122114795.5169041 4254771.6767072007 2468445.3075150321 122114796.12365802 6183183.4610697124 4364463.4502560571 118434948.3128645 4595504.3162328489 2955808.7079598545 117326765.62318292 7382868.4411399858 5742232.1782134082 122460733.71683338 2597765.6027464285 824950.98805973411 122117725.94975968 2583321.5040208604 824950.99766689271 122114796.12365802 6183183.4610697124 4364463.4502560571 122460735.55980858 11232263.637046847 9314405.9635527525 121317461.51974694 2888218.4249910032 1157859.0172990793 121508279.42173935 2541219.2856122926 808788.5532689828 120894031.76794671 2364702.9258862273 660668.6639136814 115972646.66361225 3089437.2865306172 1576986.1760763139 121768857.41313261 2234453.1316063455 496386.88323555223 120894031.76794671 2364702.9258862273 660668.6639136814 119817103.90220912 2319353.4709767518 660668.40262585459 115972646.66361225 3089437.2865306172 1576986.1760763139 121768857.41313261 2234453.1316063455 496386.88323555223 121898456.24987988 2504310.8604022819 756345.81087527436 122111865.10629745 2248897.1226203698 496386.89273469109 119467908.52313627 3228409.5765400492 1568911.484145287 122460733.71683338 2597765.6027464285 824950.98805973411 122111864.80644609 2597765.6411680579 839395.02005634434 121746470.03325309 3165295.2843210711 1412519.5642429597 121825600.72682722 2785748.7402733215 1036072.4148347583 122460733.71683338 2597765.6027464285 824950.98805973411 122111864.80644609 2597765.6411680579 839395.02005634434 122114796.12365802 6183183.4610697124 4364463.4502560571 122460735.55980858 11232263.637046847 9314405.9635527525 119817103.90220912 2319353.4709767518 660668.40262585459 113425625.6084947 5844822.2044261862 4391539.6190247443 112261580.17100818 2035778.6608766129 694674.442389815 117677126.76499578 2229238.9399320926 660667.88768703095 122460733.71683338 2597765.6027464285 824950.98805973411 122111864.80644609 2597765.6411680579 839395.02005634434 121746470.03325309 3165295.2843210711 1412519.5642429597 122114795.5169041 4254771.6767072007 2468445.3075150321 122111864.80644609 2597765.6411680579 839395.02005634434 121555969.34534158 2979608.3397046672 1237838.9160462481 121746470.03325309 3165295.2843210711 1412519.5642429597 122114795.5169041 4254771.6767072007 2468445.3075150321 122460733.71683338 2597765.6027464285 824950.98805973411 122111864.80644609 2597765.6411680579 839395.02005634434 122114795.5169041 4254771.6767072007 2468445.3075150321 122114796.12365802 6183183.4610697124 4364463.4502560571 122111864.80644609 2597765.6411680579 839395.02005634434 122111865.10629745 2248897.1226203698 496386.89273469109 118347722.71490021 2416110.0180225405 816635.17339748447 113477370.83803754 2248898.5848610383 853876.65371599642 122111864.80644609 2597765.6411680579 839395.02005634434 121555969.34534158 2979608.3397046672 1237838.9160462481 118347722.71490021 2416110.0180225405 816635.17339748447 113477370.83803754 2248898.5848610383 853876.65371599642 122111864.80644609 2597765.6411680579 839395.02005634434 122111865.10629745 2248897.1226203698 496386.89273469109 119467908.52313627 3228409.5765400492 1568911.484145287 118277167.48465823 3330796.4567333716 1718877.9013917716 122111864.80644609 2597765.6411680579 839395.02005634434 121555969.34534158 2979608.3397046672 1237838.9160462481 119467908.52313627 3228409.5765400492 1568911.484145287 118277167.48465823 3330796.4567333716 1718877.9013917716 122111864.80644609 2597765.6411680579 839395.02005634434 122111865.10629745 2248897.1226203698 496386.89273469109 118277167.48465823 3330796.4567333716 1718877.9013917716 118347722.71490021 2416110.0180225405 816635.17339748447 122111864.80644609 2597765.6411680579 839395.02005634434 121555969.34534158 2979608.3397046672 1237838.9160462481 118277167.48465823 3330796.4567333716 1718877.9013917716 118347722.71490021 2416110.0180225405 816635.17339748447 122117725.94975968 2583321.5040208604 824950.99766689271 122114796.12365802 6183183.4610697124 4364463.4502560571 117399508.68077224 7172966.7780428017 5532844.793343123 117677126.76499578 2229238.9399320926 660667.88768703095 120894031.76794671 2364702.9258862273 660668.6639136814 117978218.42895588 5338101.8799548587 3704841.9290572638 119817103.90220912 2319353.4709767518 660668.40262585459 118434948.3128645 4595504.3162328489 2955808.7079598545 122117725.94975968 2583321.5040208604 824950.99766689271 122114796.12365802 6183183.4610697124 4364463.4502560571 119817103.90220912 2319353.4709767518 660668.40262585459 117677126.76499578 2229238.9399320926 660667.88768703095 121768857.41313261 2234453.1316063455 496386.88323555223 121317461.51974694 2888218.4249910032 1157859.0172990793 119467908.52313627 3228409.5765400492 1568911.484145287 115972646.66361225 3089437.2865306172 1576986.1760763139 121768857.41313261 2234453.1316063455 496386.88323555223 119817103.90220912 2319353.4709767518 660668.40262585459 112261580.17100818 2035778.6608766129 694674.442389815 117677126.76499578 2229238.9399320926 660667.88768703095 121768857.41313261 2234453.1316063455 496386.88323555223 119817103.90220912 2319353.4709767518 660668.40262585459 115972646.66361225 3089437.2865306172 1576986.1760763139 112261580.17100818 2035778.6608766129 694674.442389815 121768857.41313261 2234453.1316063455 496386.88323555223 121508279.42173935 2541219.2856122926 808788.5532689828 120894031.76794671 2364702.9258862273 660668.6639136814 115972646.66361225 3089437.2865306172 1576986.1760763139 121898456.24987988 2504310.8604022819 756345.81087527436 122111864.80644609 2597765.6411680579 839395.02005634434 122111865.10629745 2248897.1226203698 496386.89273469109 119467908.52313627 3228409.5765400492 1568911.484145287 121746470.03325309 3165295.2843210711 1412519.5642429597 121317461.51974694 2888218.4249910032 1157859.0172990793 122114795.5169041 4254771.6767072007 2468445.3075150321 118434948.3128645 4595504.3162328489 2955808.7079598545 117978218.42895588 5338101.8799548587 3704841.9290572638 119817103.90220912 2319353.4709767518 660668.40262585459 118434948.3128645 4595504.3162328489 2955808.7079598545 113425625.6084947 5844822.2044261862 4391539.6190247443 122460733.86627251 2248897.0104422262 481942.97408020427 122286299.41939564 2423331.383296486 660668.88866698591 122289230.0017098 2416109.3780974043 653446.89054364956 122460733.71683338 2597765.6027464285 824950.98805973411 119817103.90220912 2319353.4709767518 660668.40262585459 115972646.66361225 3089437.2865306172 1576986.1760763139 118434948.3128645 4595504.3162328489 2955808.7079598545 113425625.6084947 5844822.2044261862 4391539.6190247443 122460733.86627251 2248897.0104422262 481942.97408020427 122114795.57250142 2241675.1029066946 489164.90852333198 122289230.0017098 2416109.3780974043 653446.89054364956 122117725.92318328 2234453.1360677215 481942.77731848171 122111864.80644609 2597765.6411680579 839395.02005634434 121555969.34534158 2979608.3397046672 1237838.9160462481 122114795.5169041 4254771.6767072007 2468445.3075150321 117326765.62318292 7382868.4411399858 5742232.1782134082 122111864.80644609 2597765.6411680579 839395.02005634434 122114795.5169041 4254771.6767072007 2468445.3075150321 122114796.12365802 6183183.4610697124 4364463.4502560571 117326765.62318292 7382868.4411399858 5742232.1782134082 120894031.76794671 2364702.9258862273 660668.6639136814 119817103.90220912 2319353.4709767518 660668.40262585459 115972646.66361225 3089437.2865306172 1576986.1760763139 118434948.3128645 4595504.3162328489 2955808.7079598545 122460733.71683338 2597765.6027464285 824950.98805973411 122117725.94975968 2583321.5040208604 824950.99766689271 121746470.03325309 3165295.2843210711 1412519.5642429597 121825600.72682722 2785748.7402733215 1036072.4148347583 121555969.34534158 2979608.3397046672 1237838.9160462481 122114795.5169041 4254771.6767072007 2468445.3075150321 118347722.71490021 2416110.0180225405 816635.17339748447 117326765.62318292 7382868.4411399858 5742232.1782134082 122114795.5169041 4254771.6767072007 2468445.3075150321 118434948.3128645 4595504.3162328489 2955808.7079598545 118347722.71490021 2416110.0180225405 816635.17339748447 117326765.62318292 7382868.4411399858 5742232.1782134082 122460733.71683338 2597765.6027464285 824950.98805973411 122117725.94975968 2583321.5040208604 824950.99766689271 121746470.03325309 3165295.2843210711 1412519.5642429597 122114795.5169041 4254771.6767072007 2468445.3075150321 122114795.57250142 2241675.1029066946 489164.90852333198 122286299.41939564 2423331.383296486 660668.88866698591 121898456.24987988 2504310.8604022819 756345.81087527436 122111865.10629745 2248897.1226203698 496386.89273469109 122286299.41939564 2423331.383296486 660668.88866698591 122289230.0017098 2416109.3780974043 653446.89054364956 122460733.71683338 2597765.6027464285 824950.98805973411 121898456.24987988 2504310.8604022819 756345.81087527436 122117725.94975968 2583321.5040208604 824950.99766689271 121746470.03325309 3165295.2843210711 1412519.5642429597 121825600.72682722 2785748.7402733215 1036072.4148347583 121508279.42173935 2541219.2856122926 808788.5532689828 121746470.03325309 3165295.2843210711 1412519.5642429597 121317461.51974694 2888218.4249910032 1157859.0172990793 121508279.42173935 2541219.2856122926 808788.5532689828 122114795.5169041 4254771.6767072007 2468445.3075150321 122111864.80644609 2597765.6411680579 839395.02005634434 121555969.34534158 2979608.3397046672 1237838.9160462481 117326765.62318292 7382868.4411399858 5742232.1782134082 113477370.83803754 2248898.5848610383 853876.65371599642 122117725.94975968 2583321.5040208604 824950.99766689271 121746470.03325309 3165295.2843210711 1412519.5642429597 121508279.42173935 2541219.2856122926 808788.5532689828 122114795.5169041 4254771.6767072007 2468445.3075150321 121768857.41313261 2234453.1316063455 496386.88323555223 122111865.10629745 2248897.1226203698 496386.89273469109 119467908.52313627 3228409.5765400492 1568911.484145287 118277167.48465823 3330796.4567333716 1718877.9013917716 121555969.34534158 2979608.3397046672 1237838.9160462481 121746470.03325309 3165295.2843210711 1412519.5642429597 121317461.51974694 2888218.4249910032 1157859.0172990793 118434948.3128645 4595504.3162328489 2955808.7079598545 122114795.57250142 2241675.1029066946 489164.90852333198 122289230.0017098 2416109.3780974043 653446.89054364956 122117725.92318328 2234453.1360677215 481942.77731848171 121898456.24987988 2504310.8604022819 756345.81087527436 122460733.71683338 2597765.6027464285 824950.98805973411 122117725.94975968 2583321.5040208604 824950.99766689271 122114795.5169041 4254771.6767072007 2468445.3075150321 122114796.12365802 6183183.4610697124 4364463.4502560571 122117725.94975968 2583321.5040208604 824950.99766689271 120894031.76794671 2364702.9258862273 660668.6639136814 122114796.12365802 6183183.4610697124 4364463.4502560571 119817103.90220912 2319353.4709767518 660668.40262585459 121768857.41313261 2234453.1316063455 496386.88323555223 122111865.10629745 2248897.1226203698 496386.89273469109 118347722.71490021 2416110.0180225405 816635.17339748447 113477370.83803754 2248898.5848610383 853876.65371599642 121317461.51974694 2888218.4249910032 1157859.0172990793 120894031.76794671 2364702.9258862273 660668.6639136814 115972646.66361225 3089437.2865306172 1576986.1760763139 118434948.3128645 4595504.3162328489 2955808.7079598545 120894031.76794671 2364702.9258862273 660668.6639136814 122114796.12365802 6183183.4610697124 4364463.4502560571 117978218.42895588 5338101.8799548587 3704841.9290572638 119817103.90220912 2319353.4709767518 660668.40262585459 121555969.34534158 2979608.3397046672 1237838.9160462481 122114795.5169041 4254771.6767072007 2468445.3075150321 118434948.3128645 4595504.3162328489 2955808.7079598545 118347722.71490021 2416110.0180225405 816635.17339748447 121768857.41313261 2234453.1316063455 496386.88323555223 121898456.24987988 2504310.8604022819 756345.81087527436 121317461.51974694 2888218.4249910032 1157859.0172990793 119467908.52313627 3228409.5765400492 1568911.484145287 121555969.34534158 2979608.3397046672 1237838.9160462481 121746470.03325309 3165295.2843210711 1412519.5642429597 122114795.5169041 4254771.6767072007 2468445.3075150321 118434948.3128645 4595504.3162328489 2955808.7079598545 121768857.41313261 2234453.1316063455 496386.88323555223 121898456.24987988 2504310.8604022819 756345.81087527436 121317461.51974694 2888218.4249910032 1157859.0172990793 121508279.42173935 2541219.2856122926 808788.5532689828 122117725.94975968 2583321.5040208604 824950.99766689271 122117725.92318328 2234453.1360677215 481942.77731848171 119817103.90220912 2319353.4709767518 660668.40262585459 117677126.76499578 2229238.9399320926 660667.88768703095 122114795.57250142 2241675.1029066946 489164.90852333198 122286299.41939564 2423331.383296486 660668.88866698591 122289230.0017098 2416109.3780974043 653446.89054364956 121898456.24987988 2504310.8604022819 756345.81087527436 122460733.71683338 2597765.6027464285 824950.98805973411 121898456.24987988 2504310.8604022819 756345.81087527436 122111864.80644609 2597765.6411680579 839395.02005634434 121825600.72682722 2785748.7402733215 1036072.4148347583 122289230.0017098 2416109.3780974043 653446.89054364956 122460733.71683338 2597765.6027464285 824950.98805973411 122117725.94975968 2583321.5040208604 824950.99766689271 121898456.24987988 2504310.8604022819 756345.81087527436 122460733.71683338 2597765.6027464285 824950.98805973411 122117725.94975968 2583321.5040208604 824950.99766689271 121898456.24987988 2504310.8604022819 756345.81087527436 121825600.72682722 2785748.7402733215 1036072.4148347583 122286299.41939564 2423331.383296486 660668.88866698591 122460733.71683338 2597765.6027464285 824950.98805973411 121898456.24987988 2504310.8604022819 756345.81087527436 122111864.80644609 2597765.6411680579 839395.02005634434 122117725.94975968 2583321.5040208604 824950.99766689271 121898456.24987988 2504310.8604022819 756345.81087527436 121825600